Sconfig 0.00000 tap: on snoop: rts? on errs? on
Sconfig 0.00000 salvage: on !bd replies? on
Sconfig 0.00000 grat error: on grat reply: on
Sconfig 0.00000 $reply for props: on ring 0 search: on
Sconfig 0.00000 using MOBICACHE
s 15.000000000 _0_ AGT  --- 0 cbr 512 [0 0 0 0] ------- [0:0 10:0 32 0] [0] 0 0
r 15.000000000 _0_ RTR  --- 0 cbr 512 [0 0 0 0] ------- [0:0 10:0 32 0] [0] 0 0
s 15.000000000 _1_ AGT  --- 2 cbr 512 [0 0 0 0] ------- [1:0 10:1 32 0] [0] 0 0
r 15.000000000 _1_ RTR  --- 2 cbr 512 [0 0 0 0] ------- [1:0 10:1 32 0] [0] 0 0
s 15.000000000 _5_ AGT  --- 4 cbr 512 [0 0 0 0] ------- [5:0 6:0 32 0] [0] 0 0
r 15.000000000 _5_ RTR  --- 4 cbr 512 [0 0 0 0] ------- [5:0 6:0 32 0] [0] 0 0
s 15.004671621 _5_ RTR  --- 5 DSR 32 [0 0 0 0] ------- [5:255 6:255 32 0] 1 [1 1] [0 1 0 0->0] [0 0 0 0->0]
r 15.005643954 _2_ RTR  --- 5 DSR 32 [0 ffffffff 5 800] ------- [5:255 6:255 32 0] 1 [1 1] [0 1 0 0->0] [0 0 0 0->0]
r 15.005643954 _8_ RTR  --- 5 DSR 32 [0 ffffffff 5 800] ------- [5:255 6:255 32 0] 1 [1 1] [0 1 0 0->0] [0 0 0 0->0]
r 15.005644287 _4_ RTR  --- 5 DSR 32 [0 ffffffff 5 800] ------- [5:255 6:255 32 0] 1 [1 1] [0 1 0 0->0] [0 0 0 0->0]
r 15.005644287 _12_ RTR  --- 5 DSR 32 [0 ffffffff 5 800] ------- [5:255 6:255 32 0] 1 [1 1] [0 1 0 0->0] [0 0 0 0->0]
r 15.005644366 _7_ RTR  --- 5 DSR 32 [0 ffffffff 5 800] ------- [5:255 6:255 32 0] 1 [1 1] [0 1 0 0->0] [0 0 0 0->0]
r 15.005644366 _1_ RTR  --- 5 DSR 32 [0 ffffffff 5 800] ------- [5:255 6:255 32 0] 1 [1 1] [0 1 0 0->0] [0 0 0 0->0]
s 15.007311047 _1_ RTR  --- 3 DSR 32 [0 0 0 0] ------- [1:255 10:255 32 0] 1 [1 1] [0 1 0 0->0] [0 0 0 0->0]
r 15.008443380 _4_ RTR  --- 3 DSR 32 [0 ffffffff 1 800] ------- [1:255 10:255 32 0] 1 [1 1] [0 1 0 0->0] [0 0 0 0->0]
r 15.008443713 _0_ RTR  --- 3 DSR 32 [0 ffffffff 1 800] ------- [1:255 10:255 32 0] 1 [1 1] [0 1 0 0->0] [0 0 0 0->0]
r 15.008443713 _7_ RTR  --- 3 DSR 32 [0 ffffffff 1 800] ------- [1:255 10:255 32 0] 1 [1 1] [0 1 0 0->0] [0 0 0 0->0]
r 15.008443713 _2_ RTR  --- 3 DSR 32 [0 ffffffff 1 800] ------- [1:255 10:255 32 0] 1 [1 1] [0 1 0 0->0] [0 0 0 0->0]
r 15.008443792 _3_ RTR  --- 3 DSR 32 [0 ffffffff 1 800] ------- [1:255 10:255 32 0] 1 [1 1] [0 1 0 0->0] [0 0 0 0->0]
r 15.008443792 _5_ RTR  --- 3 DSR 32 [0 ffffffff 1 800] ------- [1:255 10:255 32 0] 1 [1 1] [0 1 0 0->0] [0 0 0 0->0]
s 15.009232193 _0_ RTR  --- 1 DSR 32 [0 0 0 0] ------- [0:255 10:255 32 0] 1 [1 1] [0 1 0 0->0] [0 0 0 0->0]
r 15.010084526 _3_ RTR  --- 1 DSR 32 [0 ffffffff 0 800] ------- [0:255 10:255 32 0] 1 [1 1] [0 1 0 0->0] [0 0 0 0->0]
r 15.010084860 _6_ RTR  --- 1 DSR 32 [0 ffffffff 0 800] ------- [0:255 10:255 32 0] 1 [1 1] [0 1 0 0->0] [0 0 0 0->0]
r 15.010084860 _1_ RTR  --- 1 DSR 32 [0 ffffffff 0 800] ------- [0:255 10:255 32 0] 1 [1 1] [0 1 0 0->0] [0 0 0 0->0]
r 15.010084938 _4_ RTR  --- 1 DSR 32 [0 ffffffff 0 800] ------- [0:255 10:255 32 0] 1 [1 1] [0 1 0 0->0] [0 0 0 0->0]
s 15.044830677 _1_ RTR  --- 8 DSR 32 [0 0 0 0] ------- [1:255 10:255 32 0] 1 [1 2] [0 2 0 0->16] [0 0 0 0->0]
r 15.045703011 _4_ RTR  --- 8 DSR 32 [0 ffffffff 1 800] ------- [1:255 10:255 32 0] 1 [1 2] [0 2 0 0->16] [0 0 0 0->0]
r 15.045703344 _0_ RTR  --- 8 DSR 32 [0 ffffffff 1 800] ------- [1:255 10:255 32 0] 1 [1 2] [0 2 0 0->16] [0 0 0 0->0]
r 15.045703344 _7_ RTR  --- 8 DSR 32 [0 ffffffff 1 800] ------- [1:255 10:255 32 0] 1 [1 2] [0 2 0 0->16] [0 0 0 0->0]
r 15.045703344 _2_ RTR  --- 8 DSR 32 [0 ffffffff 1 800] ------- [1:255 10:255 32 0] 1 [1 2] [0 2 0 0->16] [0 0 0 0->0]
r 15.045703423 _3_ RTR  --- 8 DSR 32 [0 ffffffff 1 800] ------- [1:255 10:255 32 0] 1 [1 2] [0 2 0 0->16] [0 0 0 0->0]
r 15.045703423 _5_ RTR  --- 8 DSR 32 [0 ffffffff 1 800] ------- [1:255 10:255 32 0] 1 [1 2] [0 2 0 0->16] [0 0 0 0->0]
f 15.049132045 _2_ RTR  --- 8 DSR 48 [0 ffffffff 1 800] ------- [1:255 10:255 32 0] 2 [1 2] [0 2 0 0->16] [0 0 0 0->0]
r 15.050512378 _5_ RTR  --- 8 DSR 48 [0 ffffffff 2 800] ------- [1:255 10:255 32 0] 2 [1 2] [0 2 0 0->16] [0 0 0 0->0]
r 15.050512711 _1_ RTR  --- 8 DSR 48 [0 ffffffff 2 800] ------- [1:255 10:255 32 0] 2 [1 2] [0 2 0 0->16] [0 0 0 0->0]
r 15.050512711 _8_ RTR  --- 8 DSR 48 [0 ffffffff 2 800] ------- [1:255 10:255 32 0] 2 [1 2] [0 2 0 0->16] [0 0 0 0->0]
r 15.050512790 _4_ RTR  --- 8 DSR 48 [0 ffffffff 2 800] ------- [1:255 10:255 32 0] 2 [1 2] [0 2 0 0->16] [0 0 0 0->0]
f 15.050909702 _5_ RTR  --- 8 DSR 48 [0 ffffffff 1 800] ------- [1:255 10:255 32 0] 2 [1 2] [0 2 0 0->16] [0 0 0 0->0]
f 15.051692073 _0_ RTR  --- 8 DSR 48 [0 ffffffff 1 800] ------- [1:255 10:255 32 0] 2 [1 2] [0 2 0 0->16] [0 0 0 0->0]
r 15.051890035 _2_ RTR  --- 8 DSR 48 [0 ffffffff 5 800] ------- [1:255 10:255 32 0] 2 [1 2] [0 2 0 0->16] [0 0 0 0->0]
r 15.051890035 _8_ RTR  --- 8 DSR 48 [0 ffffffff 5 800] ------- [1:255 10:255 32 0] 2 [1 2] [0 2 0 0->16] [0 0 0 0->0]
r 15.051890369 _4_ RTR  --- 8 DSR 48 [0 ffffffff 5 800] ------- [1:255 10:255 32 0] 2 [1 2] [0 2 0 0->16] [0 0 0 0->0]
r 15.051890369 _12_ RTR  --- 8 DSR 48 [0 ffffffff 5 800] ------- [1:255 10:255 32 0] 2 [1 2] [0 2 0 0->16] [0 0 0 0->0]
r 15.051890447 _7_ RTR  --- 8 DSR 48 [0 ffffffff 5 800] ------- [1:255 10:255 32 0] 2 [1 2] [0 2 0 0->16] [0 0 0 0->0]
r 15.051890447 _1_ RTR  --- 8 DSR 48 [0 ffffffff 5 800] ------- [1:255 10:255 32 0] 2 [1 2] [0 2 0 0->16] [0 0 0 0->0]
f 15.052276738 _4_ RTR  --- 8 DSR 48 [0 ffffffff 1 800] ------- [1:255 10:255 32 0] 2 [1 2] [0 2 0 0->16] [0 0 0 0->0]
f 15.052901382 _12_ RTR  --- 8 DSR 68 [0 ffffffff 5 800] ------- [1:255 10:255 32 0] 3 [1 2] [0 2 0 0->16] [0 0 0 0->0]
f 15.053018383 _3_ RTR  --- 8 DSR 48 [0 ffffffff 1 800] ------- [1:255 10:255 32 0] 2 [1 2] [0 2 0 0->16] [0 0 0 0->0]
r 15.053517072 _1_ RTR  --- 8 DSR 48 [0 ffffffff 4 800] ------- [1:255 10:255 32 0] 2 [1 2] [0 2 0 0->16] [0 0 0 0->0]
r 15.053517072 _7_ RTR  --- 8 DSR 48 [0 ffffffff 4 800] ------- [1:255 10:255 32 0] 2 [1 2] [0 2 0 0->16] [0 0 0 0->0]
r 15.053517405 _3_ RTR  --- 8 DSR 48 [0 ffffffff 4 800] ------- [1:255 10:255 32 0] 2 [1 2] [0 2 0 0->16] [0 0 0 0->0]
r 15.053517405 _13_ RTR  --- 8 DSR 48 [0 ffffffff 4 800] ------- [1:255 10:255 32 0] 2 [1 2] [0 2 0 0->16] [0 0 0 0->0]
r 15.053517405 _5_ RTR  --- 8 DSR 48 [0 ffffffff 4 800] ------- [1:255 10:255 32 0] 2 [1 2] [0 2 0 0->16] [0 0 0 0->0]
r 15.053517484 _6_ RTR  --- 8 DSR 48 [0 ffffffff 4 800] ------- [1:255 10:255 32 0] 2 [1 2] [0 2 0 0->16] [0 0 0 0->0]
r 15.053517484 _0_ RTR  --- 8 DSR 48 [0 ffffffff 4 800] ------- [1:255 10:255 32 0] 2 [1 2] [0 2 0 0->16] [0 0 0 0->0]
r 15.053517484 _2_ RTR  --- 8 DSR 48 [0 ffffffff 4 800] ------- [1:255 10:255 32 0] 2 [1 2] [0 2 0 0->16] [0 0 0 0->0]
r 15.053517484 _8_ RTR  --- 8 DSR 48 [0 ffffffff 4 800] ------- [1:255 10:255 32 0] 2 [1 2] [0 2 0 0->16] [0 0 0 0->0]
r 15.054527817 _3_ RTR  --- 8 DSR 48 [0 ffffffff 0 800] ------- [1:255 10:255 32 0] 2 [1 2] [0 2 0 0->16] [0 0 0 0->0]
r 15.054528150 _6_ RTR  --- 8 DSR 48 [0 ffffffff 0 800] ------- [1:255 10:255 32 0] 2 [1 2] [0 2 0 0->16] [0 0 0 0->0]
r 15.054528150 _1_ RTR  --- 8 DSR 48 [0 ffffffff 0 800] ------- [1:255 10:255 32 0] 2 [1 2] [0 2 0 0->16] [0 0 0 0->0]
r 15.054528229 _4_ RTR  --- 8 DSR 48 [0 ffffffff 0 800] ------- [1:255 10:255 32 0] 2 [1 2] [0 2 0 0->16] [0 0 0 0->0]
f 15.055587322 _7_ RTR  --- 8 DSR 48 [0 ffffffff 1 800] ------- [1:255 10:255 32 0] 2 [1 2] [0 2 0 0->16] [0 0 0 0->0]
r 15.055758150 _0_ RTR  --- 8 DSR 48 [0 ffffffff 3 800] ------- [1:255 10:255 32 0] 2 [1 2] [0 2 0 0->16] [0 0 0 0->0]
r 15.055758150 _6_ RTR  --- 8 DSR 48 [0 ffffffff 3 800] ------- [1:255 10:255 32 0] 2 [1 2] [0 2 0 0->16] [0 0 0 0->0]
r 15.055758484 _4_ RTR  --- 8 DSR 48 [0 ffffffff 3 800] ------- [1:255 10:255 32 0] 2 [1 2] [0 2 0 0->16] [0 0 0 0->0]
r 15.055758562 _1_ RTR  --- 8 DSR 48 [0 ffffffff 3 800] ------- [1:255 10:255 32 0] 2 [1 2] [0 2 0 0->16] [0 0 0 0->0]
r 15.055758562 _7_ RTR  --- 8 DSR 48 [0 ffffffff 3 800] ------- [1:255 10:255 32 0] 2 [1 2] [0 2 0 0->16] [0 0 0 0->0]
r 15.057048896 _4_ RTR  --- 8 DSR 48 [0 ffffffff 7 800] ------- [1:255 10:255 32 0] 2 [1 2] [0 2 0 0->16] [0 0 0 0->0]
r 15.057048896 _13_ RTR  --- 8 DSR 48 [0 ffffffff 7 800] ------- [1:255 10:255 32 0] 2 [1 2] [0 2 0 0->16] [0 0 0 0->0]
r 15.057049229 _1_ RTR  --- 8 DSR 48 [0 ffffffff 7 800] ------- [1:255 10:255 32 0] 2 [1 2] [0 2 0 0->16] [0 0 0 0->0]
r 15.057049229 _6_ RTR  --- 8 DSR 48 [0 ffffffff 7 800] ------- [1:255 10:255 32 0] 2 [1 2] [0 2 0 0->16] [0 0 0 0->0]
r 15.057049229 _10_ RTR  --- 8 DSR 48 [0 ffffffff 7 800] ------- [1:255 10:255 32 0] 2 [1 2] [0 2 0 0->16] [0 0 0 0->0]
r 15.057049229 _8_ RTR  --- 8 DSR 48 [0 ffffffff 7 800] ------- [1:255 10:255 32 0] 2 [1 2] [0 2 0 0->16] [0 0 0 0->0]
r 15.057049308 _3_ RTR  --- 8 DSR 48 [0 ffffffff 7 800] ------- [1:255 10:255 32 0] 2 [1 2] [0 2 0 0->16] [0 0 0 0->0]
r 15.057049308 _5_ RTR  --- 8 DSR 48 [0 ffffffff 7 800] ------- [1:255 10:255 32 0] 2 [1 2] [0 2 0 0->16] [0 0 0 0->0]
r 15.057049308 _12_ RTR  --- 8 DSR 48 [0 ffffffff 7 800] ------- [1:255 10:255 32 0] 2 [1 2] [0 2 0 0->16] [0 0 0 0->0]
r 15.058319641 _11_ RTR  --- 8 DSR 68 [0 ffffffff c 800] ------- [1:255 10:255 32 0] 3 [1 2] [0 2 0 0->16] [0 0 0 0->0]
r 15.058319641 _8_ RTR  --- 8 DSR 68 [0 ffffffff c 800] ------- [1:255 10:255 32 0] 3 [1 2] [0 2 0 0->16] [0 0 0 0->0]
r 15.058319974 _5_ RTR  --- 8 DSR 68 [0 ffffffff c 800] ------- [1:255 10:255 32 0] 3 [1 2] [0 2 0 0->16] [0 0 0 0->0]
r 15.058319974 _13_ RTR  --- 8 DSR 68 [0 ffffffff c 800] ------- [1:255 10:255 32 0] 3 [1 2] [0 2 0 0->16] [0 0 0 0->0]
r 15.058320053 _10_ RTR  --- 8 DSR 68 [0 ffffffff c 800] ------- [1:255 10:255 32 0] 3 [1 2] [0 2 0 0->16] [0 0 0 0->0]
r 15.058320053 _7_ RTR  --- 8 DSR 68 [0 ffffffff c 800] ------- [1:255 10:255 32 0] 3 [1 2] [0 2 0 0->16] [0 0 0 0->0]
f 15.059619109 _6_ RTR  --- 8 DSR 68 [0 ffffffff 4 800] ------- [1:255 10:255 32 0] 3 [1 2] [0 2 0 0->16] [0 0 0 0->0]
f 15.059773802 _8_ RTR  --- 8 DSR 68 [0 ffffffff 2 800] ------- [1:255 10:255 32 0] 3 [1 2] [0 2 0 0->16] [0 0 0 0->0]
r 15.060999443 _3_ RTR  --- 8 DSR 68 [0 ffffffff 6 800] ------- [1:255 10:255 32 0] 3 [1 2] [0 2 0 0->16] [0 0 0 0->0]
r 15.060999776 _0_ RTR  --- 8 DSR 68 [0 ffffffff 6 800] ------- [1:255 10:255 32 0] 3 [1 2] [0 2 0 0->16] [0 0 0 0->0]
r 15.060999776 _9_ RTR  --- 8 DSR 68 [0 ffffffff 6 800] ------- [1:255 10:255 32 0] 3 [1 2] [0 2 0 0->16] [0 0 0 0->0]
r 15.060999776 _7_ RTR  --- 8 DSR 68 [0 ffffffff 6 800] ------- [1:255 10:255 32 0] 3 [1 2] [0 2 0 0->16] [0 0 0 0->0]
r 15.060999855 _4_ RTR  --- 8 DSR 68 [0 ffffffff 6 800] ------- [1:255 10:255 32 0] 3 [1 2] [0 2 0 0->16] [0 0 0 0->0]
r 15.060999855 _13_ RTR  --- 8 DSR 68 [0 ffffffff 6 800] ------- [1:255 10:255 32 0] 3 [1 2] [0 2 0 0->16] [0 0 0 0->0]
s 15.062237291 _10_ RTR  --- 11 DSR 60 [0 0 0 0] ------- [10:255 1:255 254 12] 4 [0 2] [1 2 4 1->10] [0 0 0 0->0]
r 15.062634776 _5_ RTR  --- 8 DSR 68 [0 ffffffff 8 800] ------- [1:255 10:255 32 0] 3 [1 2] [0 2 0 0->16] [0 0 0 0->0]
r 15.062634776 _12_ RTR  --- 8 DSR 68 [0 ffffffff 8 800] ------- [1:255 10:255 32 0] 3 [1 2] [0 2 0 0->16] [0 0 0 0->0]
r 15.062635109 _2_ RTR  --- 8 DSR 68 [0 ffffffff 8 800] ------- [1:255 10:255 32 0] 3 [1 2] [0 2 0 0->16] [0 0 0 0->0]
r 15.062635109 _7_ RTR  --- 8 DSR 68 [0 ffffffff 8 800] ------- [1:255 10:255 32 0] 3 [1 2] [0 2 0 0->16] [0 0 0 0->0]
r 15.062635109 _11_ RTR  --- 8 DSR 68 [0 ffffffff 8 800] ------- [1:255 10:255 32 0] 3 [1 2] [0 2 0 0->16] [0 0 0 0->0]
r 15.062635188 _13_ RTR  --- 8 DSR 68 [0 ffffffff 8 800] ------- [1:255 10:255 32 0] 3 [1 2] [0 2 0 0->16] [0 0 0 0->0]
r 15.062635188 _4_ RTR  --- 8 DSR 68 [0 ffffffff 8 800] ------- [1:255 10:255 32 0] 3 [1 2] [0 2 0 0->16] [0 0 0 0->0]
f 15.063123818 _13_ RTR  --- 8 DSR 68 [0 ffffffff 4 800] ------- [1:255 10:255 32 0] 3 [1 2] [0 2 0 0->16] [0 0 0 0->0]
s 15.063913234 _10_ RTR  --- 9 DSR 52 [0 0 0 0] ------- [10:255 1:255 254 7] 3 [0 2] [1 2 3 1->10] [0 0 0 0->0]
r 15.064923622 _12_ RTR  --- 11 DSR 60 [13a c a 800] ------- [10:255 1:255 254 12] 4 [0 2] [1 2 4 1->10] [0 0 0 0->0]
f 15.064923622 _12_ RTR  --- 11 DSR 60 [13a c a 800] ------- [10:255 1:255 253 5] 4 [0 2] [1 2 4 1->10] [0 0 0 0->0]
s 15.066143243 _5_ RTR  --- 10 DSR 32 [0 0 0 0] ------- [5:255 6:255 32 0] 1 [1 2] [0 2 0 0->16] [0 0 0 0->0]
f 15.066986270 _9_ RTR  --- 8 DSR 92 [0 ffffffff 6 800] ------- [1:255 10:255 32 0] 4 [1 2] [0 2 0 0->16] [0 0 0 0->0]
r 15.067235034 _10_ RTR  --- 8 DSR 68 [0 ffffffff d 800] ------- [1:255 10:255 32 0] 3 [1 2] [0 2 0 0->16] [0 0 0 0->0]
r 15.067235034 _7_ RTR  --- 8 DSR 68 [0 ffffffff d 800] ------- [1:255 10:255 32 0] 3 [1 2] [0 2 0 0->16] [0 0 0 0->0]
r 15.067235367 _4_ RTR  --- 8 DSR 68 [0 ffffffff d 800] ------- [1:255 10:255 32 0] 3 [1 2] [0 2 0 0->16] [0 0 0 0->0]
r 15.067235367 _12_ RTR  --- 8 DSR 68 [0 ffffffff d 800] ------- [1:255 10:255 32 0] 3 [1 2] [0 2 0 0->16] [0 0 0 0->0]
r 15.067235446 _9_ RTR  --- 8 DSR 68 [0 ffffffff d 800] ------- [1:255 10:255 32 0] 3 [1 2] [0 2 0 0->16] [0 0 0 0->0]
r 15.067235446 _6_ RTR  --- 8 DSR 68 [0 ffffffff d 800] ------- [1:255 10:255 32 0] 3 [1 2] [0 2 0 0->16] [0 0 0 0->0]
r 15.067235446 _8_ RTR  --- 8 DSR 68 [0 ffffffff d 800] ------- [1:255 10:255 32 0] 3 [1 2] [0 2 0 0->16] [0 0 0 0->0]
r 15.067235446 _11_ RTR  --- 8 DSR 68 [0 ffffffff d 800] ------- [1:255 10:255 32 0] 3 [1 2] [0 2 0 0->16] [0 0 0 0->0]
f 15.067693807 _11_ RTR  --- 8 DSR 92 [0 ffffffff c 800] ------- [1:255 10:255 32 0] 4 [1 2] [0 2 0 0->16] [0 0 0 0->0]
r 15.069035034 _7_ RTR  --- 9 DSR 52 [13a 7 a 800] ------- [10:255 1:255 254 7] 3 [0 2] [1 2 3 1->10] [0 0 0 0->0]
f 15.069035034 _7_ RTR  --- 9 DSR 52 [13a 7 a 800] ------- [10:255 1:255 253 1] 3 [0 2] [1 2 3 1->10] [0 0 0 0->0]
s 15.071059267 _5_ AGT  --- 13 cbr 512 [0 0 0 0] ------- [5:0 6:0 32 0] [1] 0 0
r 15.071059267 _5_ RTR  --- 13 cbr 512 [0 0 0 0] ------- [5:0 6:0 32 0] [1] 0 0
r 15.071269034 _1_ RTR  --- 9 DSR 52 [13a 1 7 800] ------- [10:255 1:255 253 1] 3 [0 2] [1 2 3 1->10] [0 0 0 0->0]
SFESTs 15.071269034 _1_ 2 [1 -> 10] 1(1) to 7 [1 |7 10 ]
s 15.071269034 _1_ RTR  --- 2 cbr 552 [0 0 0 0] ------- [1:0 10:1 32 7] [0] 0 0
r 15.072366112 _2_ RTR  --- 10 DSR 32 [0 ffffffff 5 800] ------- [5:255 6:255 32 0] 1 [1 2] [0 2 0 0->16] [0 0 0 0->0]
r 15.072366112 _8_ RTR  --- 10 DSR 32 [0 ffffffff 5 800] ------- [5:255 6:255 32 0] 1 [1 2] [0 2 0 0->16] [0 0 0 0->0]
r 15.072366446 _4_ RTR  --- 10 DSR 32 [0 ffffffff 5 800] ------- [5:255 6:255 32 0] 1 [1 2] [0 2 0 0->16] [0 0 0 0->0]
r 15.072366446 _12_ RTR  --- 10 DSR 32 [0 ffffffff 5 800] ------- [5:255 6:255 32 0] 1 [1 2] [0 2 0 0->16] [0 0 0 0->0]
r 15.072366524 _7_ RTR  --- 10 DSR 32 [0 ffffffff 5 800] ------- [5:255 6:255 32 0] 1 [1 2] [0 2 0 0->16] [0 0 0 0->0]
r 15.072366524 _1_ RTR  --- 10 DSR 32 [0 ffffffff 5 800] ------- [5:255 6:255 32 0] 1 [1 2] [0 2 0 0->16] [0 0 0 0->0]
f 15.074711792 _1_ RTR  --- 10 DSR 48 [0 ffffffff 5 800] ------- [5:255 6:255 32 0] 2 [1 2] [0 2 0 0->16] [0 0 0 0->0]
s 15.075282674 _10_ RTR  --- 12 DSR 60 [0 0 0 0] ------- [10:255 1:255 254 13] 4 [0 2] [1 2 4 1->10] [0 0 0 0->0]
f 15.075778770 _2_ RTR  --- 10 DSR 48 [0 ffffffff 5 800] ------- [5:255 6:255 32 0] 2 [1 2] [0 2 0 0->16] [0 0 0 0->0]
f 15.076443516 _7_ RTR  --- 10 DSR 48 [0 ffffffff 5 800] ------- [5:255 6:255 32 0] 2 [1 2] [0 2 0 0->16] [0 0 0 0->0]
f 15.076494544 _8_ RTR  --- 10 DSR 48 [0 ffffffff 5 800] ------- [5:255 6:255 32 0] 2 [1 2] [0 2 0 0->16] [0 0 0 0->0]
f 15.077582779 _12_ RTR  --- 10 DSR 48 [0 ffffffff 5 800] ------- [5:255 6:255 32 0] 2 [1 2] [0 2 0 0->16] [0 0 0 0->0]
r 15.078246524 _7_ RTR  --- 2 cbr 552 [13a 7 1 800] ------- [1:0 10:1 32 7] [0] 1 0
f 15.078246524 _7_ RTR  --- 2 cbr 552 [13a 7 1 800] ------- [1:0 10:1 31 10] [0] 1 0
SFESTs 15.078360465 _0_ 0 [0 -> 10] 1(1) to 1 [0 |1 7 10 ]
s 15.078360465 _0_ RTR  --- 0 cbr 556 [0 0 0 0] ------- [0:0 10:0 32 1] [0] 0 0
f 15.078919647 _4_ RTR  --- 10 DSR 48 [0 ffffffff 5 800] ------- [5:255 6:255 32 0] 2 [1 2] [0 2 0 0->16] [0 0 0 0->0]
r 15.080254191 _13_ RTR  --- 12 DSR 60 [13a d a 800] ------- [10:255 1:255 254 13] 4 [0 2] [1 2 4 1->10] [0 0 0 0->0]
f 15.080254191 _13_ RTR  --- 12 DSR 60 [13a d a 800] ------- [10:255 1:255 253 4] 4 [0 2] [1 2 4 1->10] [0 0 0 0->0]
r 15.082312191 _4_ RTR  --- 12 DSR 60 [13a 4 d 800] ------- [10:255 1:255 253 4] 4 [0 2] [1 2 4 1->10] [0 0 0 0->0]
f 15.082312191 _4_ RTR  --- 12 DSR 60 [13a 4 d 800] ------- [10:255 1:255 252 1] 4 [0 2] [1 2 4 1->10] [0 0 0 0->0]
r 15.083496858 _4_ RTR  --- 10 DSR 48 [0 ffffffff 7 800] ------- [5:255 6:255 32 0] 2 [1 2] [0 2 0 0->16] [0 0 0 0->0]
r 15.083496858 _13_ RTR  --- 10 DSR 48 [0 ffffffff 7 800] ------- [5:255 6:255 32 0] 2 [1 2] [0 2 0 0->16] [0 0 0 0->0]
r 15.083497191 _6_ RTR  --- 10 DSR 48 [0 ffffffff 7 800] ------- [5:255 6:255 32 0] 2 [1 2] [0 2 0 0->16] [0 0 0 0->0]
r 15.083497191 _8_ RTR  --- 10 DSR 48 [0 ffffffff 7 800] ------- [5:255 6:255 32 0] 2 [1 2] [0 2 0 0->16] [0 0 0 0->0]
r 15.083497270 _3_ RTR  --- 10 DSR 48 [0 ffffffff 7 800] ------- [5:255 6:255 32 0] 2 [1 2] [0 2 0 0->16] [0 0 0 0->0]
r 15.083497603 _7_ RTR  --- 10 DSR 48 [0 ffffffff 8 800] ------- [5:255 6:255 32 0] 2 [1 2] [0 2 0 0->16] [0 0 0 0->0]
s 15.084692434 _6_ RTR  --- 15 DSR 52 [0 0 0 0] ------- [6:255 5:255 254 7] 3 [0 2] [1 2 3 5->6] [0 0 0 0->0]
r 15.089317603 _10_ RTR  --- 2 cbr 552 [13a a 7 800] ------- [1:0 10:1 31 10] [0] 2 0
r 15.089317603 _10_ AGT  --- 2 cbr 512 [13a a 7 800] ------- [1:0 10:1 31 10] [0] 2 0
f 15.089427521 _13_ RTR  --- 10 DSR 68 [0 ffffffff 7 800] ------- [5:255 6:255 32 0] 3 [1 2] [0 2 0 0->16] [0 0 0 0->0]
f 15.091088048 _3_ RTR  --- 10 DSR 68 [0 ffffffff 7 800] ------- [5:255 6:255 32 0] 3 [1 2] [0 2 0 0->16] [0 0 0 0->0]
r 15.091356348 _5_ RTR  --- 11 DSR 60 [13a 5 c 800] ------- [10:255 1:255 253 5] 4 [0 2] [1 2 4 1->10] [0 0 0 0->0]
f 15.091356348 _5_ RTR  --- 11 DSR 60 [13a 5 c 800] ------- [10:255 1:255 252 1] 4 [0 2] [1 2 4 1->10] [0 0 0 0->0]
r 15.092681348 _11_ RTR  --- 10 DSR 48 [0 ffffffff c 800] ------- [5:255 6:255 32 0] 2 [1 2] [0 2 0 0->16] [0 0 0 0->0]
r 15.092681348 _8_ RTR  --- 10 DSR 48 [0 ffffffff c 800] ------- [5:255 6:255 32 0] 2 [1 2] [0 2 0 0->16] [0 0 0 0->0]
r 15.092681682 _5_ RTR  --- 10 DSR 48 [0 ffffffff c 800] ------- [5:255 6:255 32 0] 2 [1 2] [0 2 0 0->16] [0 0 0 0->0]
r 15.092681682 _13_ RTR  --- 10 DSR 48 [0 ffffffff c 800] ------- [5:255 6:255 32 0] 2 [1 2] [0 2 0 0->16] [0 0 0 0->0]
r 15.092681760 _10_ RTR  --- 10 DSR 48 [0 ffffffff c 800] ------- [5:255 6:255 32 0] 2 [1 2] [0 2 0 0->16] [0 0 0 0->0]
r 15.092681760 _7_ RTR  --- 10 DSR 48 [0 ffffffff c 800] ------- [5:255 6:255 32 0] 2 [1 2] [0 2 0 0->16] [0 0 0 0->0]
r 15.094625918 _1_ RTR  --- 11 DSR 60 [13a 1 5 800] ------- [10:255 1:255 252 1] 4 [0 2] [1 2 4 1->10] [0 0 0 0->0]
f 15.094852488 _10_ RTR  --- 10 DSR 68 [0 ffffffff c 800] ------- [5:255 6:255 32 0] 3 [1 2] [0 2 0 0->16] [0 0 0 0->0]
r 15.095810584 _1_ RTR  --- 10 DSR 48 [0 ffffffff 4 800] ------- [5:255 6:255 32 0] 2 [1 2] [0 2 0 0->16] [0 0 0 0->0]
r 15.095810584 _7_ RTR  --- 10 DSR 48 [0 ffffffff 4 800] ------- [5:255 6:255 32 0] 2 [1 2] [0 2 0 0->16] [0 0 0 0->0]
r 15.095810918 _3_ RTR  --- 10 DSR 48 [0 ffffffff 4 800] ------- [5:255 6:255 32 0] 2 [1 2] [0 2 0 0->16] [0 0 0 0->0]
r 15.095810918 _13_ RTR  --- 10 DSR 48 [0 ffffffff 4 800] ------- [5:255 6:255 32 0] 2 [1 2] [0 2 0 0->16] [0 0 0 0->0]
r 15.095810918 _5_ RTR  --- 10 DSR 48 [0 ffffffff 4 800] ------- [5:255 6:255 32 0] 2 [1 2] [0 2 0 0->16] [0 0 0 0->0]
r 15.095810997 _6_ RTR  --- 10 DSR 48 [0 ffffffff 4 800] ------- [5:255 6:255 32 0] 2 [1 2] [0 2 0 0->16] [0 0 0 0->0]
r 15.095810997 _0_ RTR  --- 10 DSR 48 [0 ffffffff 4 800] ------- [5:255 6:255 32 0] 2 [1 2] [0 2 0 0->16] [0 0 0 0->0]
r 15.095810997 _2_ RTR  --- 10 DSR 48 [0 ffffffff 4 800] ------- [5:255 6:255 32 0] 2 [1 2] [0 2 0 0->16] [0 0 0 0->0]
r 15.095810997 _8_ RTR  --- 10 DSR 48 [0 ffffffff 4 800] ------- [5:255 6:255 32 0] 2 [1 2] [0 2 0 0->16] [0 0 0 0->0]
r 15.096841251 _0_ RTR  --- 10 DSR 68 [0 ffffffff 3 800] ------- [5:255 6:255 32 0] 3 [1 2] [0 2 0 0->16] [0 0 0 0->0]
r 15.096841251 _6_ RTR  --- 10 DSR 68 [0 ffffffff 3 800] ------- [5:255 6:255 32 0] 3 [1 2] [0 2 0 0->16] [0 0 0 0->0]
r 15.096841584 _4_ RTR  --- 10 DSR 68 [0 ffffffff 3 800] ------- [5:255 6:255 32 0] 3 [1 2] [0 2 0 0->16] [0 0 0 0->0]
r 15.096841663 _1_ RTR  --- 10 DSR 68 [0 ffffffff 3 800] ------- [5:255 6:255 32 0] 3 [1 2] [0 2 0 0->16] [0 0 0 0->0]
r 15.096841663 _7_ RTR  --- 10 DSR 68 [0 ffffffff 3 800] ------- [5:255 6:255 32 0] 3 [1 2] [0 2 0 0->16] [0 0 0 0->0]
r 15.097811997 _4_ RTR  --- 10 DSR 48 [0 ffffffff 1 800] ------- [5:255 6:255 32 0] 2 [1 2] [0 2 0 0->16] [0 0 0 0->0]
r 15.097812330 _0_ RTR  --- 10 DSR 48 [0 ffffffff 1 800] ------- [5:255 6:255 32 0] 2 [1 2] [0 2 0 0->16] [0 0 0 0->0]
r 15.097812330 _7_ RTR  --- 10 DSR 48 [0 ffffffff 1 800] ------- [5:255 6:255 32 0] 2 [1 2] [0 2 0 0->16] [0 0 0 0->0]
r 15.097812330 _2_ RTR  --- 10 DSR 48 [0 ffffffff 1 800] ------- [5:255 6:255 32 0] 2 [1 2] [0 2 0 0->16] [0 0 0 0->0]
r 15.097812409 _3_ RTR  --- 10 DSR 48 [0 ffffffff 1 800] ------- [5:255 6:255 32 0] 2 [1 2] [0 2 0 0->16] [0 0 0 0->0]
r 15.097812409 _5_ RTR  --- 10 DSR 48 [0 ffffffff 1 800] ------- [5:255 6:255 32 0] 2 [1 2] [0 2 0 0->16] [0 0 0 0->0]
r 15.098682663 _5_ RTR  --- 10 DSR 48 [0 ffffffff 2 800] ------- [5:255 6:255 32 0] 2 [1 2] [0 2 0 0->16] [0 0 0 0->0]
r 15.098682997 _1_ RTR  --- 10 DSR 48 [0 ffffffff 2 800] ------- [5:255 6:255 32 0] 2 [1 2] [0 2 0 0->16] [0 0 0 0->0]
r 15.098682997 _8_ RTR  --- 10 DSR 48 [0 ffffffff 2 800] ------- [5:255 6:255 32 0] 2 [1 2] [0 2 0 0->16] [0 0 0 0->0]
f 15.099045549 _0_ RTR  --- 10 DSR 68 [0 ffffffff 4 800] ------- [5:255 6:255 32 0] 3 [1 2] [0 2 0 0->16] [0 0 0 0->0]
f 15.099147762 _11_ RTR  --- 10 DSR 68 [0 ffffffff c 800] ------- [5:255 6:255 32 0] 3 [1 2] [0 2 0 0->16] [0 0 0 0->0]
r 15.100834233 _10_ RTR  --- 10 DSR 68 [0 ffffffff d 800] ------- [5:255 6:255 32 0] 3 [1 2] [0 2 0 0->16] [0 0 0 0->0]
r 15.100834233 _7_ RTR  --- 10 DSR 68 [0 ffffffff d 800] ------- [5:255 6:255 32 0] 3 [1 2] [0 2 0 0->16] [0 0 0 0->0]
r 15.100834566 _4_ RTR  --- 10 DSR 68 [0 ffffffff d 800] ------- [5:255 6:255 32 0] 3 [1 2] [0 2 0 0->16] [0 0 0 0->0]
r 15.100834566 _12_ RTR  --- 10 DSR 68 [0 ffffffff d 800] ------- [5:255 6:255 32 0] 3 [1 2] [0 2 0 0->16] [0 0 0 0->0]
r 15.100834645 _9_ RTR  --- 10 DSR 68 [0 ffffffff d 800] ------- [5:255 6:255 32 0] 3 [1 2] [0 2 0 0->16] [0 0 0 0->0]
r 15.100834645 _6_ RTR  --- 10 DSR 68 [0 ffffffff d 800] ------- [5:255 6:255 32 0] 3 [1 2] [0 2 0 0->16] [0 0 0 0->0]
r 15.100834645 _8_ RTR  --- 10 DSR 68 [0 ffffffff d 800] ------- [5:255 6:255 32 0] 3 [1 2] [0 2 0 0->16] [0 0 0 0->0]
r 15.100834645 _11_ RTR  --- 10 DSR 68 [0 ffffffff d 800] ------- [5:255 6:255 32 0] 3 [1 2] [0 2 0 0->16] [0 0 0 0->0]
r 15.102136978 _12_ RTR  --- 8 DSR 92 [0 ffffffff b 800] ------- [1:255 10:255 32 0] 4 [1 2] [0 2 0 0->16] [0 0 0 0->0]
r 15.102137311 _8_ RTR  --- 8 DSR 92 [0 ffffffff b 800] ------- [1:255 10:255 32 0] 4 [1 2] [0 2 0 0->16] [0 0 0 0->0]
r 15.102137311 _10_ RTR  --- 8 DSR 92 [0 ffffffff b 800] ------- [1:255 10:255 32 0] 4 [1 2] [0 2 0 0->16] [0 0 0 0->0]
s 15.102622952 _6_ RTR  --- 18 DSR 52 [0 0 0 0] ------- [6:255 5:255 254 4] 3 [0 2] [1 2 3 5->6] [0 0 0 0->0]
r 15.103206978 _12_ RTR  --- 10 DSR 68 [0 ffffffff b 800] ------- [5:255 6:255 32 0] 3 [1 2] [0 2 0 0->16] [0 0 0 0->0]
r 15.103207311 _8_ RTR  --- 10 DSR 68 [0 ffffffff b 800] ------- [5:255 6:255 32 0] 3 [1 2] [0 2 0 0->16] [0 0 0 0->0]
r 15.103207311 _10_ RTR  --- 10 DSR 68 [0 ffffffff b 800] ------- [5:255 6:255 32 0] 3 [1 2] [0 2 0 0->16] [0 0 0 0->0]
r 15.103207390 _13_ RTR  --- 10 DSR 68 [0 ffffffff b 800] ------- [5:255 6:255 32 0] 3 [1 2] [0 2 0 0->16] [0 0 0 0->0]
s 15.103386849 _6_ RTR  --- 20 DSR 60 [0 0 0 0] ------- [6:255 5:255 254 13] 4 [0 2] [1 2 4 5->6] [0 0 0 0->0]
s 15.104048278 _6_ RTR  --- 19 DSR 60 [0 0 0 0] ------- [6:255 5:255 254 3] 4 [0 2] [1 2 4 5->6] [0 0 0 0->0]
r 15.108771101 _1_ RTR  --- 0 cbr 556 [13a 1 0 800] ------- [0:0 10:0 32 1] [0] 1 0
f 15.108771101 _1_ RTR  --- 0 cbr 556 [13a 1 0 800] ------- [0:0 10:0 31 7] [0] 1 0
s 15.108892168 _10_ RTR  --- 21 DSR 68 [0 0 0 0] ------- [10:255 1:255 254 11] 5 [0 2] [1 2 5 1->10] [0 0 0 0->0]
f 15.110000270 _9_ RTR  --- 10 DSR 92 [0 ffffffff d 800] ------- [5:255 6:255 32 0] 4 [1 2] [0 2 0 0->16] [0 0 0 0->0]
r 15.111008434 _1_ RTR  --- 12 DSR 60 [13a 1 4 800] ------- [10:255 1:255 252 1] 4 [0 2] [1 2 4 1->10] [0 0 0 0->0]
r 15.112373434 _3_ RTR  --- 10 DSR 68 [0 ffffffff 0 800] ------- [5:255 6:255 32 0] 3 [1 2] [0 2 0 0->16] [0 0 0 0->0]
r 15.112373768 _6_ RTR  --- 10 DSR 68 [0 ffffffff 0 800] ------- [5:255 6:255 32 0] 3 [1 2] [0 2 0 0->16] [0 0 0 0->0]
r 15.112373768 _1_ RTR  --- 10 DSR 68 [0 ffffffff 0 800] ------- [5:255 6:255 32 0] 3 [1 2] [0 2 0 0->16] [0 0 0 0->0]
r 15.112373846 _4_ RTR  --- 10 DSR 68 [0 ffffffff 0 800] ------- [5:255 6:255 32 0] 3 [1 2] [0 2 0 0->16] [0 0 0 0->0]
s 15.114844440 _6_ RTR  --- 22 DSR 60 [0 0 0 0] ------- [6:255 5:255 254 0] 4 [0 2] [1 2 4 5->6] [0 0 0 0->0]
r 15.118125768 _7_ RTR  --- 0 cbr 556 [13a 7 1 800] ------- [0:0 10:0 31 7] [0] 2 0
f 15.118125768 _7_ RTR  --- 0 cbr 556 [13a 7 1 800] ------- [0:0 10:0 30 10] [0] 2 0
r 15.124151768 _10_ RTR  --- 0 cbr 556 [13a a 7 800] ------- [0:0 10:0 30 10] [0] 3 0
r 15.124151768 _10_ AGT  --- 0 cbr 512 [13a a 7 800] ------- [0:0 10:0 30 10] [0] 3 0
r 15.125756101 _13_ RTR  --- 10 DSR 68 [0 ffffffff a 800] ------- [5:255 6:255 32 0] 3 [1 2] [0 2 0 0->16] [0 0 0 0->0]
r 15.125756434 _7_ RTR  --- 10 DSR 68 [0 ffffffff a 800] ------- [5:255 6:255 32 0] 3 [1 2] [0 2 0 0->16] [0 0 0 0->0]
r 15.125756434 _9_ RTR  --- 10 DSR 68 [0 ffffffff a 800] ------- [5:255 6:255 32 0] 3 [1 2] [0 2 0 0->16] [0 0 0 0->0]
r 15.125756434 _11_ RTR  --- 10 DSR 68 [0 ffffffff a 800] ------- [5:255 6:255 32 0] 3 [1 2] [0 2 0 0->16] [0 0 0 0->0]
r 15.125756513 _12_ RTR  --- 10 DSR 68 [0 ffffffff a 800] ------- [5:255 6:255 32 0] 3 [1 2] [0 2 0 0->16] [0 0 0 0->0]
r 15.127059101 _6_ RTR  --- 10 DSR 92 [0 ffffffff 9 800] ------- [5:255 6:255 32 0] 4 [1 2] [0 2 0 0->16] [0 0 0 0->0]
r 15.127059101 _10_ RTR  --- 10 DSR 92 [0 ffffffff 9 800] ------- [5:255 6:255 32 0] 4 [1 2] [0 2 0 0->16] [0 0 0 0->0]
r 15.127059180 _13_ RTR  --- 10 DSR 92 [0 ffffffff 9 800] ------- [5:255 6:255 32 0] 4 [1 2] [0 2 0 0->16] [0 0 0 0->0]
r 15.128679101 _7_ RTR  --- 15 DSR 52 [13a 7 6 800] ------- [6:255 5:255 254 7] 3 [0 2] [1 2 3 5->6] [0 0 0 0->0]
f 15.128679101 _7_ RTR  --- 15 DSR 52 [13a 7 6 800] ------- [6:255 5:255 253 5] 3 [0 2] [1 2 3 5->6] [0 0 0 0->0]
s 15.129806512 _0_ AGT  --- 24 cbr 512 [0 0 0 0] ------- [0:0 10:0 32 0] [1] 0 0
r 15.129806512 _0_ RTR  --- 24 cbr 512 [0 0 0 0] ------- [0:0 10:0 32 0] [1] 0 0
SFESTs 15.129806512 _0_ 24 [0 -> 10] 1(1) to 1 [0 |1 7 10 ]
s 15.129806512 _0_ RTR  --- 24 cbr 556 [0 0 0 0] ------- [0:0 10:0 32 1] [1] 0 0
r 15.130773337 _5_ RTR  --- 15 DSR 52 [13a 5 7 800] ------- [6:255 5:255 253 5] 3 [0 2] [1 2 3 5->6] [0 0 0 0->0]
SFESTs 15.130773337 _5_ 4 [5 -> 6] 1(1) to 7 [5 |7 6 ]
SFESTs 15.130773337 _5_ 13 [5 -> 6] 1(1) to 7 [5 |7 6 ]
s 15.130773337 _5_ RTR  --- 4 cbr 552 [0 0 0 0] ------- [5:0 6:0 32 7] [0] 0 0
s 15.132206811 _6_ RTR  --- 23 DSR 68 [0 0 0 0] ------- [6:255 5:255 254 9] 5 [0 2] [1 2 5 5->6] [0 0 0 0->0]
s 15.135253159 _1_ AGT  --- 25 cbr 512 [0 0 0 0] ------- [1:0 10:1 32 0] [1] 0 0
r 15.135253159 _1_ RTR  --- 25 cbr 512 [0 0 0 0] ------- [1:0 10:1 32 0] [1] 0 0
SFESTs 15.135253159 _1_ 25 [1 -> 10] 1(1) to 7 [1 |7 10 ]
s 15.135253159 _1_ RTR  --- 25 cbr 552 [0 0 0 0] ------- [1:0 10:1 32 7] [1] 0 0
r 15.136787573 _7_ RTR  --- 4 cbr 552 [13a 7 5 800] ------- [5:0 6:0 32 7] [0] 1 0
f 15.136787573 _7_ RTR  --- 4 cbr 552 [13a 7 5 800] ------- [5:0 6:0 31 6] [0] 1 0
s 15.140508769 _5_ AGT  --- 26 cbr 512 [0 0 0 0] ------- [5:0 6:0 32 0] [2] 0 0
r 15.140508769 _5_ RTR  --- 26 cbr 512 [0 0 0 0] ------- [5:0 6:0 32 0] [2] 0 0
SFESTs 15.140508769 _5_ 26 [5 -> 6] 1(1) to 7 [5 |7 6 ]
s 15.140508769 _5_ RTR  --- 26 cbr 552 [0 0 0 0] ------- [5:0 6:0 32 7] [2] 0 0
r 15.142761573 _6_ RTR  --- 4 cbr 552 [13a 6 7 800] ------- [5:0 6:0 31 6] [0] 2 0
r 15.142761573 _6_ AGT  --- 4 cbr 512 [13a 6 7 800] ------- [5:0 6:0 31 6] [0] 2 0
r 15.148757849 _1_ RTR  --- 24 cbr 556 [13a 1 0 800] ------- [0:0 10:0 32 1] [1] 1 0
f 15.148757849 _1_ RTR  --- 24 cbr 556 [13a 1 0 800] ------- [0:0 10:0 31 7] [1] 1 0
r 15.155011849 _7_ RTR  --- 25 cbr 552 [13a 7 1 800] ------- [1:0 10:1 32 7] [1] 1 0
f 15.155011849 _7_ RTR  --- 25 cbr 552 [13a 7 1 800] ------- [1:0 10:1 31 10] [1] 1 0
s 15.160773337 _5_ RTR  --- 13 cbr 552 [0 0 0 0] ------- [5:0 6:0 32 7] [1] 0 0
r 15.160958516 _7_ RTR  --- 24 cbr 556 [13a 7 1 800] ------- [0:0 10:0 31 7] [1] 2 0
f 15.160958516 _7_ RTR  --- 24 cbr 556 [13a 7 1 800] ------- [0:0 10:0 30 10] [1] 2 0
r 15.163046792 _0_ RTR  --- 22 DSR 60 [13a 0 6 800] ------- [6:255 5:255 254 0] 4 [0 2] [1 2 4 5->6] [0 0 0 0->0]
f 15.163046792 _0_ RTR  --- 22 DSR 60 [13a 0 6 800] ------- [6:255 5:255 253 4] 4 [0 2] [1 2 4 5->6] [0 0 0 0->0]
r 15.165165028 _4_ RTR  --- 22 DSR 60 [13a 4 0 800] ------- [6:255 5:255 253 4] 4 [0 2] [1 2 4 5->6] [0 0 0 0->0]
f 15.165165028 _4_ RTR  --- 22 DSR 60 [13a 4 0 800] ------- [6:255 5:255 252 5] 4 [0 2] [1 2 4 5->6] [0 0 0 0->0]
r 15.168064859 _11_ RTR  --- 21 DSR 68 [13a b a 800] ------- [10:255 1:255 254 11] 5 [0 2] [1 2 5 1->10] [0 0 0 0->0]
f 15.168064859 _11_ RTR  --- 21 DSR 68 [13a b a 800] ------- [10:255 1:255 253 12] 5 [0 2] [1 2 5 1->10] [0 0 0 0->0]
r 15.170245859 _12_ RTR  --- 21 DSR 68 [13a c b 800] ------- [10:255 1:255 253 12] 5 [0 2] [1 2 5 1->10] [0 0 0 0->0]
f 15.170245859 _12_ RTR  --- 21 DSR 68 [13a c b 800] ------- [10:255 1:255 252 5] 5 [0 2] [1 2 5 1->10] [0 0 0 0->0]
r 15.176450469 _10_ RTR  --- 25 cbr 552 [13a a 7 800] ------- [1:0 10:1 31 10] [1] 2 0
r 15.176450469 _10_ AGT  --- 25 cbr 512 [13a a 7 800] ------- [1:0 10:1 31 10] [1] 2 0
r 15.178593214 _5_ RTR  --- 21 DSR 68 [13a 5 c 800] ------- [10:255 1:255 252 5] 5 [0 2] [1 2 5 1->10] [0 0 0 0->0]