Sconfig 0.00000 tap: on snoop: rts? on errs? on
Sconfig 0.00000 salvage: on !bd replies? on
Sconfig 0.00000 grat error: on grat reply: on
Sconfig 0.00000 $reply for props: on ring 0 search: on
Sconfig 0.00000 using MOBICACHE
s 15.000000000 _0_ AGT  --- 0 cbr 512 [0 0 0 0] ------- [0:0 16:0 32 0] [0] 0 0
r 15.000000000 _0_ RTR  --- 0 cbr 512 [0 0 0 0] ------- [0:0 16:0 32 0] [0] 0 0
s 15.007183001 _0_ RTR  --- 1 DSR 32 [0 0 0 0] ------- [0:255 16:255 32 0] 1 [1 1] [0 1 0 0->0] [0 0 0 0->0]
r 15.008015335 _3_ RTR  --- 1 DSR 32 [0 ffffffff 0 800] ------- [0:255 16:255 32 0] 1 [1 1] [0 1 0 0->0] [0 0 0 0->0]
r 15.008015668 _6_ RTR  --- 1 DSR 32 [0 ffffffff 0 800] ------- [0:255 16:255 32 0] 1 [1 1] [0 1 0 0->0] [0 0 0 0->0]
r 15.008015668 _1_ RTR  --- 1 DSR 32 [0 ffffffff 0 800] ------- [0:255 16:255 32 0] 1 [1 1] [0 1 0 0->0] [0 0 0 0->0]
r 15.008015747 _4_ RTR  --- 1 DSR 32 [0 ffffffff 0 800] ------- [0:255 16:255 32 0] 1 [1 1] [0 1 0 0->0] [0 0 0 0->0]
s 15.035687203 _0_ AGT  --- 2 cbr 512 [0 0 0 0] ------- [0:0 16:0 32 0] [1] 0 0
r 15.035687203 _0_ RTR  --- 2 cbr 512 [0 0 0 0] ------- [0:0 16:0 32 0] [1] 0 0
s 15.044337435 _0_ RTR  --- 3 DSR 32 [0 0 0 0] ------- [0:255 16:255 32 0] 1 [1 2] [0 2 0 0->16] [0 0 0 0->0]
r 15.045689768 _3_ RTR  --- 3 DSR 32 [0 ffffffff 0 800] ------- [0:255 16:255 32 0] 1 [1 2] [0 2 0 0->16] [0 0 0 0->0]
r 15.045690102 _6_ RTR  --- 3 DSR 32 [0 ffffffff 0 800] ------- [0:255 16:255 32 0] 1 [1 2] [0 2 0 0->16] [0 0 0 0->0]
r 15.045690102 _1_ RTR  --- 3 DSR 32 [0 ffffffff 0 800] ------- [0:255 16:255 32 0] 1 [1 2] [0 2 0 0->16] [0 0 0 0->0]
r 15.045690180 _4_ RTR  --- 3 DSR 32 [0 ffffffff 0 800] ------- [0:255 16:255 32 0] 1 [1 2] [0 2 0 0->16] [0 0 0 0->0]
f 15.045691810 _4_ RTR  --- 3 DSR 48 [0 ffffffff 0 800] ------- [0:255 16:255 32 0] 2 [1 2] [0 2 0 0->16] [0 0 0 0->0]
r 15.046712144 _1_ RTR  --- 3 DSR 48 [0 ffffffff 4 800] ------- [0:255 16:255 32 0] 2 [1 2] [0 2 0 0->16] [0 0 0 0->0]
r 15.046712144 _7_ RTR  --- 3 DSR 48 [0 ffffffff 4 800] ------- [0:255 16:255 32 0] 2 [1 2] [0 2 0 0->16] [0 0 0 0->0]
r 15.046712477 _3_ RTR  --- 3 DSR 48 [0 ffffffff 4 800] ------- [0:255 16:255 32 0] 2 [1 2] [0 2 0 0->16] [0 0 0 0->0]
r 15.046712477 _10_ RTR  --- 3 DSR 48 [0 ffffffff 4 800] ------- [0:255 16:255 32 0] 2 [1 2] [0 2 0 0->16] [0 0 0 0->0]
r 15.046712477 _5_ RTR  --- 3 DSR 48 [0 ffffffff 4 800] ------- [0:255 16:255 32 0] 2 [1 2] [0 2 0 0->16] [0 0 0 0->0]
r 15.046712556 _6_ RTR  --- 3 DSR 48 [0 ffffffff 4 800] ------- [0:255 16:255 32 0] 2 [1 2] [0 2 0 0->16] [0 0 0 0->0]
r 15.046712556 _0_ RTR  --- 3 DSR 48 [0 ffffffff 4 800] ------- [0:255 16:255 32 0] 2 [1 2] [0 2 0 0->16] [0 0 0 0->0]
r 15.046712556 _2_ RTR  --- 3 DSR 48 [0 ffffffff 4 800] ------- [0:255 16:255 32 0] 2 [1 2] [0 2 0 0->16] [0 0 0 0->0]
r 15.046712556 _8_ RTR  --- 3 DSR 48 [0 ffffffff 4 800] ------- [0:255 16:255 32 0] 2 [1 2] [0 2 0 0->16] [0 0 0 0->0]
f 15.047371487 _6_ RTR  --- 3 DSR 48 [0 ffffffff 0 800] ------- [0:255 16:255 32 0] 2 [1 2] [0 2 0 0->16] [0 0 0 0->0]
f 15.047433015 _1_ RTR  --- 3 DSR 48 [0 ffffffff 0 800] ------- [0:255 16:255 32 0] 2 [1 2] [0 2 0 0->16] [0 0 0 0->0]
f 15.048202781 _8_ RTR  --- 3 DSR 68 [0 ffffffff 4 800] ------- [0:255 16:255 32 0] 3 [1 2] [0 2 0 0->16] [0 0 0 0->0]
r 15.048453349 _4_ RTR  --- 3 DSR 48 [0 ffffffff 1 800] ------- [0:255 16:255 32 0] 2 [1 2] [0 2 0 0->16] [0 0 0 0->0]
r 15.048453682 _0_ RTR  --- 3 DSR 48 [0 ffffffff 1 800] ------- [0:255 16:255 32 0] 2 [1 2] [0 2 0 0->16] [0 0 0 0->0]
r 15.048453682 _7_ RTR  --- 3 DSR 48 [0 ffffffff 1 800] ------- [0:255 16:255 32 0] 2 [1 2] [0 2 0 0->16] [0 0 0 0->0]
r 15.048453682 _2_ RTR  --- 3 DSR 48 [0 ffffffff 1 800] ------- [0:255 16:255 32 0] 2 [1 2] [0 2 0 0->16] [0 0 0 0->0]
r 15.048453761 _3_ RTR  --- 3 DSR 48 [0 ffffffff 1 800] ------- [0:255 16:255 32 0] 2 [1 2] [0 2 0 0->16] [0 0 0 0->0]
r 15.048453761 _5_ RTR  --- 3 DSR 48 [0 ffffffff 1 800] ------- [0:255 16:255 32 0] 2 [1 2] [0 2 0 0->16] [0 0 0 0->0]
f 15.049244711 _10_ RTR  --- 3 DSR 68 [0 ffffffff 4 800] ------- [0:255 16:255 32 0] 3 [1 2] [0 2 0 0->16] [0 0 0 0->0]
r 15.050108291 _5_ RTR  --- 3 DSR 68 [0 ffffffff 8 800] ------- [0:255 16:255 32 0] 3 [1 2] [0 2 0 0->16] [0 0 0 0->0]
r 15.050108291 _11_ RTR  --- 3 DSR 68 [0 ffffffff 8 800] ------- [0:255 16:255 32 0] 3 [1 2] [0 2 0 0->16] [0 0 0 0->0]
r 15.050108625 _2_ RTR  --- 3 DSR 68 [0 ffffffff 8 800] ------- [0:255 16:255 32 0] 3 [1 2] [0 2 0 0->16] [0 0 0 0->0]
r 15.050108625 _7_ RTR  --- 3 DSR 68 [0 ffffffff 8 800] ------- [0:255 16:255 32 0] 3 [1 2] [0 2 0 0->16] [0 0 0 0->0]
r 15.050108625 _14_ RTR  --- 3 DSR 68 [0 ffffffff 8 800] ------- [0:255 16:255 32 0] 3 [1 2] [0 2 0 0->16] [0 0 0 0->0]
r 15.050108703 _10_ RTR  --- 3 DSR 68 [0 ffffffff 8 800] ------- [0:255 16:255 32 0] 3 [1 2] [0 2 0 0->16] [0 0 0 0->0]
r 15.050108703 _4_ RTR  --- 3 DSR 68 [0 ffffffff 8 800] ------- [0:255 16:255 32 0] 3 [1 2] [0 2 0 0->16] [0 0 0 0->0]
f 15.050436702 _11_ RTR  --- 3 DSR 92 [0 ffffffff 8 800] ------- [0:255 16:255 32 0] 4 [1 2] [0 2 0 0->16] [0 0 0 0->0]
f 15.050635685 _7_ RTR  --- 3 DSR 68 [0 ffffffff 4 800] ------- [0:255 16:255 32 0] 3 [1 2] [0 2 0 0->16] [0 0 0 0->0]
r 15.051119037 _7_ RTR  --- 3 DSR 68 [0 ffffffff a 800] ------- [0:255 16:255 32 0] 3 [1 2] [0 2 0 0->16] [0 0 0 0->0]
r 15.051119037 _13_ RTR  --- 3 DSR 68 [0 ffffffff a 800] ------- [0:255 16:255 32 0] 3 [1 2] [0 2 0 0->16] [0 0 0 0->0]
r 15.051119370 _4_ RTR  --- 3 DSR 68 [0 ffffffff a 800] ------- [0:255 16:255 32 0] 3 [1 2] [0 2 0 0->16] [0 0 0 0->0]
r 15.051119370 _9_ RTR  --- 3 DSR 68 [0 ffffffff a 800] ------- [0:255 16:255 32 0] 3 [1 2] [0 2 0 0->16] [0 0 0 0->0]
r 15.051119370 _16_ RTR  --- 3 DSR 68 [0 ffffffff a 800] ------- [0:255 16:255 32 0] 3 [1 2] [0 2 0 0->16] [0 0 0 0->0]
r 15.051119370 _11_ RTR  --- 3 DSR 68 [0 ffffffff a 800] ------- [0:255 16:255 32 0] 3 [1 2] [0 2 0 0->16] [0 0 0 0->0]
r 15.051119449 _12_ RTR  --- 3 DSR 68 [0 ffffffff a 800] ------- [0:255 16:255 32 0] 3 [1 2] [0 2 0 0->16] [0 0 0 0->0]
r 15.051119449 _6_ RTR  --- 3 DSR 68 [0 ffffffff a 800] ------- [0:255 16:255 32 0] 3 [1 2] [0 2 0 0->16] [0 0 0 0->0]
r 15.051119449 _8_ RTR  --- 3 DSR 68 [0 ffffffff a 800] ------- [0:255 16:255 32 0] 3 [1 2] [0 2 0 0->16] [0 0 0 0->0]
r 15.051119449 _14_ RTR  --- 3 DSR 68 [0 ffffffff a 800] ------- [0:255 16:255 32 0] 3 [1 2] [0 2 0 0->16] [0 0 0 0->0]
f 15.051923556 _3_ RTR  --- 3 DSR 48 [0 ffffffff 0 800] ------- [0:255 16:255 32 0] 2 [1 2] [0 2 0 0->16] [0 0 0 0->0]
r 15.052109782 _3_ RTR  --- 3 DSR 48 [0 ffffffff 6 800] ------- [0:255 16:255 32 0] 2 [1 2] [0 2 0 0->16] [0 0 0 0->0]
r 15.052109782 _9_ RTR  --- 3 DSR 48 [0 ffffffff 6 800] ------- [0:255 16:255 32 0] 2 [1 2] [0 2 0 0->16] [0 0 0 0->0]
r 15.052110116 _0_ RTR  --- 3 DSR 48 [0 ffffffff 6 800] ------- [0:255 16:255 32 0] 2 [1 2] [0 2 0 0->16] [0 0 0 0->0]
r 15.052110116 _12_ RTR  --- 3 DSR 48 [0 ffffffff 6 800] ------- [0:255 16:255 32 0] 2 [1 2] [0 2 0 0->16] [0 0 0 0->0]
r 15.052110116 _7_ RTR  --- 3 DSR 48 [0 ffffffff 6 800] ------- [0:255 16:255 32 0] 2 [1 2] [0 2 0 0->16] [0 0 0 0->0]
r 15.052110194 _4_ RTR  --- 3 DSR 48 [0 ffffffff 6 800] ------- [0:255 16:255 32 0] 2 [1 2] [0 2 0 0->16] [0 0 0 0->0]
r 15.052110194 _10_ RTR  --- 3 DSR 48 [0 ffffffff 6 800] ------- [0:255 16:255 32 0] 2 [1 2] [0 2 0 0->16] [0 0 0 0->0]
s 15.052741961 _16_ RTR  --- 6 DSR 60 [0 0 0 0] ------- [16:255 0:255 254 10] 4 [0 2] [1 2 4 0->16] [0 0 0 0->0]
r 15.053420449 _4_ RTR  --- 3 DSR 68 [0 ffffffff 7 800] ------- [0:255 16:255 32 0] 3 [1 2] [0 2 0 0->16] [0 0 0 0->0]
r 15.053420449 _10_ RTR  --- 3 DSR 68 [0 ffffffff 7 800] ------- [0:255 16:255 32 0] 3 [1 2] [0 2 0 0->16] [0 0 0 0->0]
r 15.053420782 _1_ RTR  --- 3 DSR 68 [0 ffffffff 7 800] ------- [0:255 16:255 32 0] 3 [1 2] [0 2 0 0->16] [0 0 0 0->0]
r 15.053420782 _6_ RTR  --- 3 DSR 68 [0 ffffffff 7 800] ------- [0:255 16:255 32 0] 3 [1 2] [0 2 0 0->16] [0 0 0 0->0]
r 15.053420782 _13_ RTR  --- 3 DSR 68 [0 ffffffff 7 800] ------- [0:255 16:255 32 0] 3 [1 2] [0 2 0 0->16] [0 0 0 0->0]
r 15.053420782 _8_ RTR  --- 3 DSR 68 [0 ffffffff 7 800] ------- [0:255 16:255 32 0] 3 [1 2] [0 2 0 0->16] [0 0 0 0->0]
r 15.053420861 _9_ RTR  --- 3 DSR 68 [0 ffffffff 7 800] ------- [0:255 16:255 32 0] 3 [1 2] [0 2 0 0->16] [0 0 0 0->0]
r 15.053420861 _3_ RTR  --- 3 DSR 68 [0 ffffffff 7 800] ------- [0:255 16:255 32 0] 3 [1 2] [0 2 0 0->16] [0 0 0 0->0]
r 15.053420861 _5_ RTR  --- 3 DSR 68 [0 ffffffff 7 800] ------- [0:255 16:255 32 0] 3 [1 2] [0 2 0 0->16] [0 0 0 0->0]
r 15.053420861 _11_ RTR  --- 3 DSR 68 [0 ffffffff 7 800] ------- [0:255 16:255 32 0] 3 [1 2] [0 2 0 0->16] [0 0 0 0->0]
r 15.054291194 _0_ RTR  --- 3 DSR 48 [0 ffffffff 3 800] ------- [0:255 16:255 32 0] 2 [1 2] [0 2 0 0->16] [0 0 0 0->0]
r 15.054291194 _6_ RTR  --- 3 DSR 48 [0 ffffffff 3 800] ------- [0:255 16:255 32 0] 2 [1 2] [0 2 0 0->16] [0 0 0 0->0]
r 15.054291528 _9_ RTR  --- 3 DSR 48 [0 ffffffff 3 800] ------- [0:255 16:255 32 0] 2 [1 2] [0 2 0 0->16] [0 0 0 0->0]
r 15.054291528 _4_ RTR  --- 3 DSR 48 [0 ffffffff 3 800] ------- [0:255 16:255 32 0] 2 [1 2] [0 2 0 0->16] [0 0 0 0->0]
r 15.054291606 _1_ RTR  --- 3 DSR 48 [0 ffffffff 3 800] ------- [0:255 16:255 32 0] 2 [1 2] [0 2 0 0->16] [0 0 0 0->0]
r 15.054291606 _7_ RTR  --- 3 DSR 48 [0 ffffffff 3 800] ------- [0:255 16:255 32 0] 2 [1 2] [0 2 0 0->16] [0 0 0 0->0]
f 15.055739730 _2_ RTR  --- 3 DSR 68 [0 ffffffff 4 800] ------- [0:255 16:255 32 0] 3 [1 2] [0 2 0 0->16] [0 0 0 0->0]
r 15.056038685 _8_ RTR  --- 3 DSR 92 [0 ffffffff b 800] ------- [0:255 16:255 32 0] 4 [1 2] [0 2 0 0->16] [0 0 0 0->0]
r 15.056038685 _14_ RTR  --- 3 DSR 92 [0 ffffffff b 800] ------- [0:255 16:255 32 0] 4 [1 2] [0 2 0 0->16] [0 0 0 0->0]
r 15.056039018 _5_ RTR  --- 3 DSR 92 [0 ffffffff b 800] ------- [0:255 16:255 32 0] 4 [1 2] [0 2 0 0->16] [0 0 0 0->0]
r 15.056039018 _10_ RTR  --- 3 DSR 92 [0 ffffffff b 800] ------- [0:255 16:255 32 0] 4 [1 2] [0 2 0 0->16] [0 0 0 0->0]
r 15.056039018 _17_ RTR  --- 3 DSR 92 [0 ffffffff b 800] ------- [0:255 16:255 32 0] 4 [1 2] [0 2 0 0->16] [0 0 0 0->0]
r 15.056039097 _13_ RTR  --- 3 DSR 92 [0 ffffffff b 800] ------- [0:255 16:255 32 0] 4 [1 2] [0 2 0 0->16] [0 0 0 0->0]
r 15.056039097 _7_ RTR  --- 3 DSR 92 [0 ffffffff b 800] ------- [0:255 16:255 32 0] 4 [1 2] [0 2 0 0->16] [0 0 0 0->0]
f 15.056234848 _5_ RTR  --- 3 DSR 68 [0 ffffffff 4 800] ------- [0:255 16:255 32 0] 3 [1 2] [0 2 0 0->16] [0 0 0 0->0]
f 15.056411120 _14_ RTR  --- 3 DSR 92 [0 ffffffff 8 800] ------- [0:255 16:255 32 0] 4 [1 2] [0 2 0 0->16] [0 0 0 0->0]
r 15.057395181 _2_ RTR  --- 3 DSR 68 [0 ffffffff 5 800] ------- [0:255 16:255 32 0] 3 [1 2] [0 2 0 0->16] [0 0 0 0->0]
r 15.057395181 _8_ RTR  --- 3 DSR 68 [0 ffffffff 5 800] ------- [0:255 16:255 32 0] 3 [1 2] [0 2 0 0->16] [0 0 0 0->0]
r 15.057395515 _4_ RTR  --- 3 DSR 68 [0 ffffffff 5 800] ------- [0:255 16:255 32 0] 3 [1 2] [0 2 0 0->16] [0 0 0 0->0]
r 15.057395515 _11_ RTR  --- 3 DSR 68 [0 ffffffff 5 800] ------- [0:255 16:255 32 0] 3 [1 2] [0 2 0 0->16] [0 0 0 0->0]
r 15.057395593 _7_ RTR  --- 3 DSR 68 [0 ffffffff 5 800] ------- [0:255 16:255 32 0] 3 [1 2] [0 2 0 0->16] [0 0 0 0->0]
r 15.057395593 _1_ RTR  --- 3 DSR 68 [0 ffffffff 5 800] ------- [0:255 16:255 32 0] 3 [1 2] [0 2 0 0->16] [0 0 0 0->0]
r 15.058805515 _5_ RTR  --- 3 DSR 68 [0 ffffffff 2 800] ------- [0:255 16:255 32 0] 3 [1 2] [0 2 0 0->16] [0 0 0 0->0]
r 15.058805848 _1_ RTR  --- 3 DSR 68 [0 ffffffff 2 800] ------- [0:255 16:255 32 0] 3 [1 2] [0 2 0 0->16] [0 0 0 0->0]
r 15.058805848 _8_ RTR  --- 3 DSR 68 [0 ffffffff 2 800] ------- [0:255 16:255 32 0] 3 [1 2] [0 2 0 0->16] [0 0 0 0->0]
r 15.058805927 _4_ RTR  --- 3 DSR 68 [0 ffffffff 2 800] ------- [0:255 16:255 32 0] 3 [1 2] [0 2 0 0->16] [0 0 0 0->0]
f 15.059161274 _9_ RTR  --- 3 DSR 92 [0 ffffffff a 800] ------- [0:255 16:255 32 0] 4 [1 2] [0 2 0 0->16] [0 0 0 0->0]
f 15.059991358 _12_ RTR  --- 3 DSR 92 [0 ffffffff a 800] ------- [0:255 16:255 32 0] 4 [1 2] [0 2 0 0->16] [0 0 0 0->0]
f 15.060563003 _17_ RTR  --- 3 DSR 120 [0 ffffffff b 800] ------- [0:255 16:255 32 0] 5 [1 2] [0 2 0 0->16] [0 0 0 0->0]
r 15.060834976 _10_ RTR  --- 6 DSR 60 [13a a 10 800] ------- [16:255 0:255 254 10] 4 [0 2] [1 2 4 0->16] [0 0 0 0->0]
f 15.060834976 _10_ RTR  --- 6 DSR 60 [13a a 10 800] ------- [16:255 0:255 253 4] 4 [0 2] [1 2 4 0->16] [0 0 0 0->0]
f 15.061078665 _13_ RTR  --- 3 DSR 92 [0 ffffffff a 800] ------- [0:255 16:255 32 0] 4 [1 2] [0 2 0 0->16] [0 0 0 0->0]
r 15.062421586 _6_ RTR  --- 3 DSR 92 [0 ffffffff 9 800] ------- [0:255 16:255 32 0] 4 [1 2] [0 2 0 0->16] [0 0 0 0->0]
r 15.062421586 _12_ RTR  --- 3 DSR 92 [0 ffffffff 9 800] ------- [0:255 16:255 32 0] 4 [1 2] [0 2 0 0->16] [0 0 0 0->0]
r 15.062421919 _3_ RTR  --- 3 DSR 92 [0 ffffffff 9 800] ------- [0:255 16:255 32 0] 4 [1 2] [0 2 0 0->16] [0 0 0 0->0]
r 15.062421919 _15_ RTR  --- 3 DSR 92 [0 ffffffff 9 800] ------- [0:255 16:255 32 0] 4 [1 2] [0 2 0 0->16] [0 0 0 0->0]
r 15.062421919 _10_ RTR  --- 3 DSR 92 [0 ffffffff 9 800] ------- [0:255 16:255 32 0] 4 [1 2] [0 2 0 0->16] [0 0 0 0->0]
s 15.062421919 _15_ RTR  --- 7 DSR 72 [0 0 0 0] ------- [15:255 0:255 255 9] 5 [0 2] [1 2 6 0->16] [0 0 0 0->0]
r 15.062421998 _7_ RTR  --- 3 DSR 92 [0 ffffffff 9 800] ------- [0:255 16:255 32 0] 4 [1 2] [0 2 0 0->16] [0 0 0 0->0]
r 15.062421998 _13_ RTR  --- 3 DSR 92 [0 ffffffff 9 800] ------- [0:255 16:255 32 0] 4 [1 2] [0 2 0 0->16] [0 0 0 0->0]
r 15.064351919 _9_ RTR  --- 7 DSR 72 [13a 9 f 800] ------- [15:255 0:255 255 9] 5 [0 2] [1 2 6 0->16] [0 0 0 0->0]
f 15.064351919 _9_ RTR  --- 7 DSR 72 [13a 9 f 800] ------- [15:255 0:255 254 10] 5 [0 2] [1 2 6 0->16] [0 0 0 0->0]
r 15.066048586 _9_ RTR  --- 3 DSR 92 [0 ffffffff c 800] ------- [0:255 16:255 32 0] 4 [1 2] [0 2 0 0->16] [0 0 0 0->0]
r 15.066048586 _15_ RTR  --- 3 DSR 92 [0 ffffffff c 800] ------- [0:255 16:255 32 0] 4 [1 2] [0 2 0 0->16] [0 0 0 0->0]
r 15.066048919 _6_ RTR  --- 3 DSR 92 [0 ffffffff c 800] ------- [0:255 16:255 32 0] 4 [1 2] [0 2 0 0->16] [0 0 0 0->0]
r 15.066048919 _13_ RTR  --- 3 DSR 92 [0 ffffffff c 800] ------- [0:255 16:255 32 0] 4 [1 2] [0 2 0 0->16] [0 0 0 0->0]
r 15.066048998 _10_ RTR  --- 3 DSR 92 [0 ffffffff c 800] ------- [0:255 16:255 32 0] 4 [1 2] [0 2 0 0->16] [0 0 0 0->0]
r 15.066048998 _16_ RTR  --- 3 DSR 92 [0 ffffffff c 800] ------- [0:255 16:255 32 0] 4 [1 2] [0 2 0 0->16] [0 0 0 0->0]
r 15.067271253 _10_ RTR  --- 3 DSR 92 [0 ffffffff d 800] ------- [0:255 16:255 32 0] 4 [1 2] [0 2 0 0->16] [0 0 0 0->0]
r 15.067271253 _16_ RTR  --- 3 DSR 92 [0 ffffffff d 800] ------- [0:255 16:255 32 0] 4 [1 2] [0 2 0 0->16] [0 0 0 0->0]
r 15.069395665 _10_ RTR  --- 7 DSR 72 [13a a 9 800] ------- [15:255 0:255 254 10] 5 [0 2] [1 2 6 0->16] [0 0 0 0->0]
f 15.069395665 _10_ RTR  --- 7 DSR 72 [13a a 9 800] ------- [15:255 0:255 253 4] 5 [0 2] [1 2 6 0->16] [0 0 0 0->0]
s 15.070675816 _16_ RTR  --- 8 DSR 68 [0 0 0 0] ------- [16:255 0:255 254 12] 5 [0 2] [1 2 5 0->16] [0 0 0 0->0]
r 15.071122706 _11_ RTR  --- 3 DSR 92 [0 ffffffff e 800] ------- [0:255 16:255 32 0] 4 [1 2] [0 2 0 0->16] [0 0 0 0->0]
r 15.071122706 _17_ RTR  --- 3 DSR 92 [0 ffffffff e 800] ------- [0:255 16:255 32 0] 4 [1 2] [0 2 0 0->16] [0 0 0 0->0]
r 15.071123039 _8_ RTR  --- 3 DSR 92 [0 ffffffff e 800] ------- [0:255 16:255 32 0] 4 [1 2] [0 2 0 0->16] [0 0 0 0->0]
r 15.071123039 _13_ RTR  --- 3 DSR 92 [0 ffffffff e 800] ------- [0:255 16:255 32 0] 4 [1 2] [0 2 0 0->16] [0 0 0 0->0]
r 15.071123118 _16_ RTR  --- 3 DSR 92 [0 ffffffff e 800] ------- [0:255 16:255 32 0] 4 [1 2] [0 2 0 0->16] [0 0 0 0->0]
r 15.071123118 _10_ RTR  --- 3 DSR 92 [0 ffffffff e 800] ------- [0:255 16:255 32 0] 4 [1 2] [0 2 0 0->16] [0 0 0 0->0]
s 15.071202017 _16_ RTR  --- 9 DSR 68 [0 0 0 0] ------- [16:255 0:255 254 13] 5 [0 2] [1 2 5 0->16] [0 0 0 0->0]
r 15.072871354 _12_ RTR  --- 8 DSR 68 [13a c 10 800] ------- [16:255 0:255 254 12] 5 [0 2] [1 2 5 0->16] [0 0 0 0->0]
f 15.072871354 _12_ RTR  --- 8 DSR 68 [13a c 10 800] ------- [16:255 0:255 253 10] 5 [0 2] [1 2 5 0->16] [0 0 0 0->0]
r 15.075033590 _10_ RTR  --- 8 DSR 68 [13a a c 800] ------- [16:255 0:255 253 10] 5 [0 2] [1 2 5 0->16] [0 0 0 0->0]
f 15.075033590 _10_ RTR  --- 8 DSR 68 [13a a c 800] ------- [16:255 0:255 252 4] 5 [0 2] [1 2 5 0->16] [0 0 0 0->0]
r 15.077211590 _4_ RTR  --- 6 DSR 60 [13a 4 a 800] ------- [16:255 0:255 253 4] 4 [0 2] [1 2 4 0->16] [0 0 0 0->0]
f 15.077211590 _4_ RTR  --- 6 DSR 60 [13a 4 a 800] ------- [16:255 0:255 252 0] 4 [0 2] [1 2 4 0->16] [0 0 0 0->0]
r 15.079309826 _0_ RTR  --- 6 DSR 60 [13a 0 4 800] ------- [16:255 0:255 252 0] 4 [0 2] [1 2 4 0->16] [0 0 0 0->0]
SFESTs 15.079309826 _0_ 0 [0 -> 16] 1(1) to 4 [0 |4 10 16 ]
SFESTs 15.079309826 _0_ 2 [0 -> 16] 1(1) to 4 [0 |4 10 16 ]
s 15.079309826 _0_ RTR  --- 0 cbr 556 [0 0 0 0] ------- [0:0 16:0 32 4] [0] 0 0
s 15.080241860 _16_ RTR  --- 10 DSR 68 [0 0 0 0] ------- [16:255 0:255 254 14] 5 [0 2] [1 2 5 0->16] [0 0 0 0->0]
r 15.081220905 _14_ RTR  --- 3 DSR 120 [0 ffffffff 11 800] ------- [0:255 16:255 32 0] 5 [1 2] [0 2 0 0->16] [0 0 0 0->0]
r 15.083373514 _4_ RTR  --- 8 DSR 68 [13a 4 a 800] ------- [16:255 0:255 252 4] 5 [0 2] [1 2 5 0->16] [0 0 0 0->0]
f 15.083373514 _4_ RTR  --- 8 DSR 68 [13a 4 a 800] ------- [16:255 0:255 251 0] 5 [0 2] [1 2 5 0->16] [0 0 0 0->0]
r 15.089550285 _4_ RTR  --- 0 cbr 556 [13a 4 0 800] ------- [0:0 16:0 32 4] [0] 1 0
f 15.089550285 _4_ RTR  --- 0 cbr 556 [13a 4 0 800] ------- [0:0 16:0 31 10] [0] 1 0
r 15.091732521 _0_ RTR  --- 8 DSR 68 [13a 0 4 800] ------- [16:255 0:255 251 0] 5 [0 2] [1 2 5 0->16] [0 0 0 0->0]
r 15.097699267 _10_ RTR  --- 0 cbr 556 [13a a 4 800] ------- [0:0 16:0 31 10] [0] 2 0
f 15.097699267 _10_ RTR  --- 0 cbr 556 [13a a 4 800] ------- [0:0 16:0 30 16] [0] 2 0
s 15.099518629 _0_ AGT  --- 11 cbr 512 [0 0 0 0] ------- [0:0 16:0 32 0] [2] 0 0
r 15.099518629 _0_ RTR  --- 11 cbr 512 [0 0 0 0] ------- [0:0 16:0 32 0] [2] 0 0
SFESTs 15.099518629 _0_ 11 [0 -> 16] 1(1) to 4 [0 |4 10 16 ]
s 15.099518629 _0_ RTR  --- 11 cbr 556 [0 0 0 0] ------- [0:0 16:0 32 4] [2] 0 0
r 15.099810933 _13_ RTR  --- 9 DSR 68 [13a d 10 800] ------- [16:255 0:255 254 13] 5 [0 2] [1 2 5 0->16] [0 0 0 0->0]
f 15.099810933 _13_ RTR  --- 9 DSR 68 [13a d 10 800] ------- [16:255 0:255 253 10] 5 [0 2] [1 2 5 0->16] [0 0 0 0->0]
r 15.101885267 _4_ RTR  --- 7 DSR 72 [13a 4 a 800] ------- [15:255 0:255 253 4] 5 [0 2] [1 2 6 0->16] [0 0 0 0->0]
f 15.101885267 _4_ RTR  --- 7 DSR 72 [13a 4 a 800] ------- [15:255 0:255 252 0] 5 [0 2] [1 2 6 0->16] [0 0 0 0->0]
r 15.107791933 _16_ RTR  --- 0 cbr 556 [13a 10 a 800] ------- [0:0 16:0 30 16] [0] 3 0
r 15.107791933 _16_ AGT  --- 0 cbr 512 [13a 10 a 800] ------- [0:0 16:0 30 16] [0] 3 0
s 15.109309826 _0_ RTR  --- 2 cbr 556 [0 0 0 0] ------- [0:0 16:0 32 4] [1] 0 0
r 15.109894169 _14_ RTR  --- 10 DSR 68 [13a e 10 800] ------- [16:255 0:255 254 14] 5 [0 2] [1 2 5 0->16] [0 0 0 0->0]
f 15.109894169 _14_ RTR  --- 10 DSR 68 [13a e 10 800] ------- [16:255 0:255 253 8] 5 [0 2] [1 2 5 0->16] [0 0 0 0->0]
r 15.114326201 _0_ RTR  --- 7 DSR 72 [13a 0 4 800] ------- [15:255 0:255 252 0] 5 [0 2] [1 2 6 0->16] [0 0 0 0->0]
r 15.116832691 _10_ RTR  --- 9 DSR 68 [13a a d 800] ------- [16:255 0:255 253 10] 5 [0 2] [1 2 5 0->16] [0 0 0 0->0]
f 15.116832691 _10_ RTR  --- 9 DSR 68 [13a a d 800] ------- [16:255 0:255 252 4] 5 [0 2] [1 2 5 0->16] [0 0 0 0->0]
r 15.119274691 _4_ RTR  --- 9 DSR 68 [13a 4 a 800] ------- [16:255 0:255 252 4] 5 [0 2] [1 2 5 0->16] [0 0 0 0->0]
f 15.119274691 _4_ RTR  --- 9 DSR 68 [13a 4 a 800] ------- [16:255 0:255 251 0] 5 [0 2] [1 2 5 0->16] [0 0 0 0->0]
r 15.121456927 _0_ RTR  --- 9 DSR 68 [13a 0 4 800] ------- [16:255 0:255 251 0] 5 [0 2] [1 2 5 0->16] [0 0 0 0->0]
r 15.124029384 _8_ RTR  --- 10 DSR 68 [13a 8 e 800] ------- [16:255 0:255 253 8] 5 [0 2] [1 2 5 0->16] [0 0 0 0->0]
f 15.124029384 _8_ RTR  --- 10 DSR 68 [13a 8 e 800] ------- [16:255 0:255 252 4] 5 [0 2] [1 2 5 0->16] [0 0 0 0->0]
r 15.126119268 _4_ RTR  --- 10 DSR 68 [13a 4 8 800] ------- [16:255 0:255 252 4] 5 [0 2] [1 2 5 0->16] [0 0 0 0->0]
f 15.126119268 _4_ RTR  --- 10 DSR 68 [13a 4 8 800] ------- [16:255 0:255 251 0] 5 [0 2] [1 2 5 0->16] [0 0 0 0->0]
r 15.128301504 _0_ RTR  --- 10 DSR 68 [13a 0 4 800] ------- [16:255 0:255 251 0] 5 [0 2] [1 2 5 0->16] [0 0 0 0->0]
r 15.134347740 _4_ RTR  --- 11 cbr 556 [13a 4 0 800] ------- [0:0 16:0 32 4] [2] 1 0
f 15.134347740 _4_ RTR  --- 11 cbr 556 [13a 4 0 800] ------- [0:0 16:0 31 10] [2] 1 0
r 15.140274722 _4_ RTR  --- 2 cbr 556 [13a 4 0 800] ------- [0:0 16:0 32 4] [1] 1 0
f 15.140274722 _4_ RTR  --- 2 cbr 556 [13a 4 0 800] ------- [0:0 16:0 31 10] [1] 1 0
r 15.146260722 _10_ RTR  --- 11 cbr 556 [13a a 4 800] ------- [0:0 16:0 31 10] [2] 2 0
f 15.146260722 _10_ RTR  --- 11 cbr 556 [13a a 4 800] ------- [0:0 16:0 30 16] [2] 2 0
r 15.152586722 _16_ RTR  --- 11 cbr 556 [13a 10 a 800] ------- [0:0 16:0 30 16] [2] 3 0
r 15.152586722 _16_ AGT  --- 11 cbr 512 [13a 10 a 800] ------- [0:0 16:0 30 16] [2] 3 0
s 15.154420394 _0_ AGT  --- 12 cbr 512 [0 0 0 0] ------- [0:0 16:0 32 0] [3] 0 0
r 15.154420394 _0_ RTR  --- 12 cbr 512 [0 0 0 0] ------- [0:0 16:0 32 0] [3] 0 0
SFs 15.154420394 _0_ 12 [0 -> 16] 1(0) to 4 
s 15.154420394 _0_ RTR  --- 12 cbr 532 [0 0 0 0] ------- [0:0 16:0 32 4] [3] 0 0
r 15.158938055 _10_ RTR  --- 2 cbr 556 [13a a 4 800] ------- [0:0 16:0 31 10] [1] 2 0
f 15.158938055 _10_ RTR  --- 2 cbr 556 [13a a 4 800] ------- [0:0 16:0 30 16] [1] 2 0
r 15.165024055 _16_ RTR  --- 2 cbr 556 [13a 10 a 800] ------- [0:0 16:0 30 16] [1] 3 0
r 15.165024055 _16_ AGT  --- 2 cbr 512 [13a 10 a 800] ------- [0:0 16:0 30 16] [1] 3 0
r 15.171224086 _4_ RTR  --- 12 cbr 532 [13a 4 0 800] ------- [0:0 16:0 32 4] [3] 1 0
SFf 15.171224086 _4_ 12 [0 -> 16] 1 to 10
f 15.171224086 _4_ RTR  --- 12 cbr 532 [13a 4 0 800] ------- [0:0 16:0 31 10] [3] 1 0
r 15.177538086 _10_ RTR  --- 12 cbr 532 [13a a 4 800] ------- [0:0 16:0 31 10] [3] 2 0
SFf 15.177538086 _10_ 12 [0 -> 16] 1 to 16
f 15.177538086 _10_ RTR  --- 12 cbr 532 [13a a 4 800] ------- [0:0 16:0 30 16] [3] 2 0
s 15.181540618 _0_ AGT  --- 13 cbr 512 [0 0 0 0] ------- [0:0 16:0 32 0] [4] 0 0
r 15.181540618 _0_ RTR  --- 13 cbr 512 [0 0 0 0] ------- [0:0 16:0 32 0] [4] 0 0
SFs 15.181540618 _0_ 13 [0 -> 16] 1(0) to 4 
s 15.181540618 _0_ RTR  --- 13 cbr 532 [0 0 0 0] ------- [0:0 16:0 32 4] [4] 0 0
r 15.183812086 _16_ RTR  --- 12 cbr 532 [13a 10 a 800] ------- [0:0 16:0 30 16] [3] 3 0
r 15.183812086 _16_ AGT  --- 12 cbr 512 [13a 10 a 800] ------- [0:0 16:0 30 16] [3] 3 0
r 15.190272117 _4_ RTR  --- 13 cbr 532 [13a 4 0 800] ------- [0:0 16:0 32 4] [4] 1 0
SFf 15.190272117 _4_ 13 [0 -> 16] 1 to 10
f 15.190272117 _4_ RTR  --- 13 cbr 532 [13a 4 0 800] ------- [0:0 16:0 31 10] [4] 1 0
r 15.196406117 _10_ RTR  --- 13 cbr 532 [13a a 4 800] ------- [0:0 16:0 31 10] [4] 2 0
SFf 15.196406117 _10_ 13 [0 -> 16] 1 to 16
f 15.196406117 _10_ RTR  --- 13 cbr 532 [13a a 4 800] ------- [0:0 16:0 30 16] [4] 2 0
r 15.202600117 _16_ RTR  --- 13 cbr 532 [13a 10 a 800] ------- [0:0 16:0 30 16] [4] 3 0
r 15.202600117 _16_ AGT  --- 13 cbr 512 [13a 10 a 800] ------- [0:0 16:0 30 16] [4] 3 0
s 15.232129358 _0_ AGT  --- 14 cbr 512 [0 0 0 0] ------- [0:0 16:0 32 0] [5] 0 0
r 15.232129358 _0_ RTR  --- 14 cbr 512 [0 0 0 0] ------- [0:0 16:0 32 0] [5] 0 0
SFs 15.232129358 _0_ 14 [0 -> 16] 1(0) to 4 
s 15.232129358 _0_ RTR  --- 14 cbr 532 [0 0 0 0] ------- [0:0 16:0 32 4] [5] 0 0
r 15.237759594 _4_ RTR  --- 14 cbr 532 [13a 4 0 800] ------- [0:0 16:0 32 4] [5] 1 0
SFf 15.237759594 _4_ 14 [0 -> 16] 1 to 10
f 15.237759594 _4_ RTR  --- 14 cbr 532 [13a 4 0 800] ------- [0:0 16:0 31 10] [5] 1 0
r 15.243553594 _10_ RTR  --- 14 cbr 532 [13a a 4 800] ------- [0:0 16:0 31 10] [5] 2 0
SFf 15.243553594 _10_ 14 [0 -> 16] 1 to 16
f 15.243553594 _10_ RTR  --- 14 cbr 532 [13a a 4 800] ------- [0:0 16:0 30 16] [5] 2 0
r 15.249667594 _16_ RTR  --- 14 cbr 532 [13a 10 a 800] ------- [0:0 16:0 30 16] [5] 3 0
r 15.249667594 _16_ AGT  --- 14 cbr 512 [13a 10 a 800] ------- [0:0 16:0 30 16] [5] 3 0
s 15.271733256 _0_ AGT  --- 15 cbr 512 [0 0 0 0] ------- [0:0 16:0 32 0] [6] 0 0
r 15.271733256 _0_ RTR  --- 15 cbr 512 [0 0 0 0] ------- [0:0 16:0 32 0] [6] 0 0
SFs 15.271733256 _0_ 15 [0 -> 16] 1(0) to 4 
s 15.271733256 _0_ RTR  --- 15 cbr 532 [0 0 0 0] ------- [0:0 16:0 32 4] [6] 0 0
r 15.277743492 _4_ RTR  --- 15 cbr 532 [13a 4 0 800] ------- [0:0 16:0 32 4] [6] 1 0
SFf 15.277743492 _4_ 15 [0 -> 16] 1 to 10
f 15.277743492 _4_ RTR  --- 15 cbr 532 [13a 4 0 800] ------- [0:0 16:0 31 10] [6] 1 0
r 15.283477492 _10_ RTR  --- 15 cbr 532 [13a a 4 800] ------- [0:0 16:0 31 10] [6] 2 0
SFf 15.283477492 _10_ 15 [0 -> 16] 1 to 16
f 15.283477492 _10_ RTR  --- 15 cbr 532 [13a a 4 800] ------- [0:0 16:0 30 16] [6] 2 0
r 15.289411492 _16_ RTR  --- 15 cbr 532 [13a 10 a 800] ------- [0:0 16:0 30 16] [6] 3 0
r 15.289411492 _16_ AGT  --- 15 cbr 512 [13a 10 a 800] ------- [0:0 16:0 30 16] [6] 3 0
s 15.328075393 _0_ AGT  --- 16 cbr 512 [0 0 0 0] ------- [0:0 16:0 32 0] [7] 0 0
r 15.328075393 _0_ RTR  --- 16 cbr 512 [0 0 0 0] ------- [0:0 16:0 32 0] [7] 0 0
SFs 15.328075393 _0_ 16 [0 -> 16] 1(0) to 4 
s 15.328075393 _0_ RTR  --- 16 cbr 532 [0 0 0 0] ------- [0:0 16:0 32 4] [7] 0 0
r 15.333525629 _4_ RTR  --- 16 cbr 532 [13a 4 0 800] ------- [0:0 16:0 32 4] [7] 1 0
SFf 15.333525629 _4_ 16 [0 -> 16] 1 to 10
f 15.333525629 _4_ RTR  --- 16 cbr 532 [13a 4 0 800] ------- [0:0 16:0 31 10] [7] 1 0
r 15.339619629 _10_ RTR  --- 16 cbr 532 [13a a 4 800] ------- [0:0 16:0 31 10] [7] 2 0
SFf 15.339619629 _10_ 16 [0 -> 16] 1 to 16
f 15.339619629 _10_ RTR  --- 16 cbr 532 [13a a 4 800] ------- [0:0 16:0 30 16] [7] 2 0
r 15.345373629 _16_ RTR  --- 16 cbr 532 [13a 10 a 800] ------- [0:0 16:0 30 16] [7] 3 0
r 15.345373629 _16_ AGT  --- 16 cbr 512 [13a 10 a 800] ------- [0:0 16:0 30 16] [7] 3 0
s 15.367783007 _0_ AGT  --- 17 cbr 512 [0 0 0 0] ------- [0:0 16:0 32 0] [8] 0 0
r 15.367783007 _0_ RTR  --- 17 cbr 512 [0 0 0 0] ------- [0:0 16:0 32 0] [8] 0 0
SFs 15.367783007 _0_ 17 [0 -> 16] 1(0) to 4 
s 15.367783007 _0_ RTR  --- 17 cbr 532 [0 0 0 0] ------- [0:0 16:0 32 4] [8] 0 0
r 15.373793243 _4_ RTR  --- 17 cbr 532 [13a 4 0 800] ------- [0:0 16:0 32 4] [8] 1 0
SFf 15.373793243 _4_ 17 [0 -> 16] 1 to 10
f 15.373793243 _4_ RTR  --- 17 cbr 532 [13a 4 0 800] ------- [0:0 16:0 31 10] [8] 1 0
r 15.380007243 _10_ RTR  --- 17 cbr 532 [13a a 4 800] ------- [0:0 16:0 31 10] [8] 2 0
SFf 15.380007243 _10_ 17 [0 -> 16] 1 to 16
f 15.380007243 _10_ RTR  --- 17 cbr 532 [13a a 4 800] ------- [0:0 16:0 30 16] [8] 2 0
r 15.386001243 _16_ RTR  --- 17 cbr 532 [13a 10 a 800] ------- [0:0 16:0 30 16] [8] 3 0
r 15.386001243 _16_ AGT  --- 17 cbr 512 [13a 10 a 800] ------- [0:0 16:0 30 16] [8] 3 0
s 15.410650289 _0_ AGT  --- 18 cbr 512 [0 0 0 0] ------- [0:0 16:0 32 0] [9] 0 0
r 15.410650289 _0_ RTR  --- 18 cbr 512 [0 0 0 0] ------- [0:0 16:0 32 0] [9] 0 0
SFs 15.410650289 _0_ 18 [0 -> 16] 1(0) to 4 
s 15.410650289 _0_ RTR  --- 18 cbr 532 [0 0 0 0] ------- [0:0 16:0 32 4] [9] 0 0
r 15.416160525 _4_ RTR  --- 18 cbr 532 [13a 4 0 800] ------- [0:0 16:0 32 4] [9] 1 0
SFf 15.416160525 _4_ 18 [0 -> 16] 1 to 10
f 15.416160525 _4_ RTR  --- 18 cbr 532 [13a 4 0 800] ------- [0:0 16:0 31 10] [9] 1 0
r 15.422314525 _10_ RTR  --- 18 cbr 532 [13a a 4 800] ------- [0:0 16:0 31 10] [9] 2 0
SFf 15.422314525 _10_ 18 [0 -> 16] 1 to 16
f 15.422314525 _10_ RTR  --- 18 cbr 532 [13a a 4 800] ------- [0:0 16:0 30 16] [9] 2 0
r 15.428108525 _16_ RTR  --- 18 cbr 532 [13a 10 a 800] ------- [0:0 16:0 30 16] [9] 3 0
r 15.428108525 _16_ AGT  --- 18 cbr 512 [13a 10 a 800] ------- [0:0 16:0 30 16] [9] 3 0
s 15.453338136 _0_ AGT  --- 19 cbr 512 [0 0 0 0] ------- [0:0 16:0 32 0] [10] 0 0
r 15.453338136 _0_ RTR  --- 19 cbr 512 [0 0 0 0] ------- [0:0 16:0 32 0] [10] 0 0
SFs 15.453338136 _0_ 19 [0 -> 16] 1(0) to 4 
s 15.453338136 _0_ RTR  --- 19 cbr 532 [0 0 0 0] ------- [0:0 16:0 32 4] [10] 0 0
r 15.458948372 _4_ RTR  --- 19 cbr 532 [13a 4 0 800] ------- [0:0 16:0 32 4] [10] 1 0
SFf 15.458948372 _4_ 19 [0 -> 16] 1 to 10
f 15.458948372 _4_ RTR  --- 19 cbr 532 [13a 4 0 800] ------- [0:0 16:0 31 10] [10] 1 0
r 15.465142372 _10_ RTR  --- 19 cbr 532 [13a a 4 800] ------- [0:0 16:0 31 10] [10] 2 0
SFf 15.465142372 _10_ 19 [0 -> 16] 1 to 16
f 15.465142372 _10_ RTR  --- 19 cbr 532 [13a a 4 800] ------- [0:0 16:0 30 16] [10] 2 0
r 15.471056372 _16_ RTR  --- 19 cbr 532 [13a 10 a 800] ------- [0:0 16:0 30 16] [10] 3 0
r 15.471056372 _16_ AGT  --- 19 cbr 512 [13a 10 a 800] ------- [0:0 16:0 30 16] [10] 3 0
s 15.482848817 _0_ AGT  --- 20 cbr 512 [0 0 0 0] ------- [0:0 16:0 32 0] [11] 0 0
r 15.482848817 _0_ RTR  --- 20 cbr 512 [0 0 0 0] ------- [0:0 16:0 32 0] [11] 0 0
SFs 15.482848817 _0_ 20 [0 -> 16] 1(0) to 4 
s 15.482848817 _0_ RTR  --- 20 cbr 532 [0 0 0 0] ------- [0:0 16:0 32 4] [11] 0 0
r 15.488799053 _4_ RTR  --- 20 cbr 532 [13a 4 0 800] ------- [0:0 16:0 32 4] [11] 1 0
SFf 15.488799053 _4_ 20 [0 -> 16] 1 to 10
f 15.488799053 _4_ RTR  --- 20 cbr 532 [13a 4 0 800] ------- [0:0 16:0 31 10] [11] 1 0
r 15.494913053 _10_ RTR  --- 20 cbr 532 [13a a 4 800] ------- [0:0 16:0 31 10] [11] 2 0
SFf 15.494913053 _10_ 20 [0 -> 16] 1 to 16
f 15.494913053 _10_ RTR  --- 20 cbr 532 [13a a 4 800] ------- [0:0 16:0 30 16] [11] 2 0
r 15.500787053 _16_ RTR  --- 20 cbr 532 [13a 10 a 800] ------- [0:0 16:0 30 16] [11] 3 0
r 15.500787053 _16_ AGT  --- 20 cbr 512 [13a 10 a 800] ------- [0:0 16:0 30 16] [11] 3 0
s 15.538122096 _0_ AGT  --- 21 cbr 512 [0 0 0 0] ------- [0:0 16:0 32 0] [12] 0 0
r 15.538122096 _0_ RTR  --- 21 cbr 512 [0 0 0 0] ------- [0:0 16:0 32 0] [12] 0 0
SFs 15.538122096 _0_ 21 [0 -> 16] 1(0) to 4 
s 15.538122096 _0_ RTR  --- 21 cbr 532 [0 0 0 0] ------- [0:0 16:0 32 4] [12] 0 0
r 15.543732332 _4_ RTR  --- 21 cbr 532 [13a 4 0 800] ------- [0:0 16:0 32 4] [12] 1 0
SFf 15.543732332 _4_ 21 [0 -> 16] 1 to 10
f 15.543732332 _4_ RTR  --- 21 cbr 532 [13a 4 0 800] ------- [0:0 16:0 31 10] [12] 1 0
r 15.549566332 _10_ RTR  --- 21 cbr 532 [13a a 4 800] ------- [0:0 16:0 31 10] [12] 2 0
SFf 15.549566332 _10_ 21 [0 -> 16] 1 to 16