s 0.000000000 _0_ RTR  --- 0 AODV 44 [0 0 0 0] ------- [0:255 -1:255 1 0] [0x1 1 [0 2] 4.000000] (HELLO)
s 0.000000000 _1_ RTR  --- 0 AODV 44 [0 0 0 0] ------- [1:255 -1:255 1 0] [0x1 1 [1 2] 4.000000] (HELLO)
s 0.000000000 _2_ RTR  --- 0 AODV 44 [0 0 0 0] ------- [2:255 -1:255 1 0] [0x1 1 [2 2] 4.000000] (HELLO)
s 0.000000000 _3_ RTR  --- 0 AODV 44 [0 0 0 0] ------- [3:255 -1:255 1 0] [0x1 1 [3 2] 4.000000] (HELLO)
s 0.000000000 _4_ RTR  --- 0 AODV 44 [0 0 0 0] ------- [4:255 -1:255 1 0] [0x1 1 [4 2] 4.000000] (HELLO)
s 0.000000000 _5_ RTR  --- 0 AODV 44 [0 0 0 0] ------- [5:255 -1:255 1 0] [0x1 1 [5 2] 4.000000] (HELLO)
s 0.000000000 _6_ RTR  --- 0 AODV 44 [0 0 0 0] ------- [6:255 -1:255 1 0] [0x1 1 [6 2] 4.000000] (HELLO)
s 0.000000000 _7_ RTR  --- 0 AODV 44 [0 0 0 0] ------- [7:255 -1:255 1 0] [0x1 1 [7 2] 4.000000] (HELLO)
r 0.000908471 _6_ RTR  --- 0 AODV 44 [0 ffffffff 4 800] ------- [4:255 -1:255 1 0] [0x1 1 [4 2] 4.000000] (HELLO)
r 0.000908471 _1_ RTR  --- 0 AODV 44 [0 ffffffff 4 800] ------- [4:255 -1:255 1 0] [0x1 1 [4 2] 4.000000] (HELLO)
r 0.000908471 _2_ RTR  --- 0 AODV 44 [0 ffffffff 4 800] ------- [4:255 -1:255 1 0] [0x1 1 [4 2] 4.000000] (HELLO)
r 0.000908471 _7_ RTR  --- 0 AODV 44 [0 ffffffff 4 800] ------- [4:255 -1:255 1 0] [0x1 1 [4 2] 4.000000] (HELLO)
s 0.000908471 _6_ RTR  --- 0 AODV 26 [0 0 0 0] ------- [6:255 4:255 1 4] [0x12 0 [1776105037 1043244018] 0.000000] (HELLO)
s 0.000908471 _1_ RTR  --- 0 AODV 26 [0 0 0 0] ------- [1:255 4:255 1 4] [0x12 0 [1776105037 1043244018] 0.000000] (HELLO)
s 0.000908471 _2_ RTR  --- 0 AODV 26 [0 0 0 0] ------- [2:255 4:255 1 4] [0x12 0 [1776105037 1043244018] 0.000000] (HELLO)
s 0.000908471 _7_ RTR  --- 0 AODV 26 [0 0 0 0] ------- [7:255 4:255 1 4] [0x12 0 [1776105037 1043244018] 0.000000] (HELLO)
r 0.000908667 _3_ RTR  --- 0 AODV 44 [0 ffffffff 4 800] ------- [4:255 -1:255 1 0] [0x1 1 [4 2] 4.000000] (HELLO)
s 0.000908667 _3_ RTR  --- 0 AODV 26 [0 0 0 0] ------- [3:255 4:255 1 4] [0x12 0 [1776105039 1041146866] 0.000000] (HELLO)
r 0.001846943 _3_ RTR  --- 0 AODV 44 [0 ffffffff 6 800] ------- [6:255 -1:255 1 0] [0x1 1 [6 2] 4.000000] (HELLO)
r 0.001846943 _4_ RTR  --- 0 AODV 44 [0 ffffffff 6 800] ------- [6:255 -1:255 1 0] [0x1 1 [6 2] 4.000000] (HELLO)
s 0.001846943 _3_ RTR  --- 0 AODV 26 [0 0 0 0] ------- [3:255 6:255 1 6] [0x12 0 [1776105037 1043244018] 0.000000] (HELLO)
s 0.001846943 _4_ RTR  --- 0 AODV 26 [0 0 0 0] ------- [4:255 6:255 1 6] [0x12 0 [1776105037 1043244018] 0.000000] (HELLO)
r 0.001847138 _1_ RTR  --- 0 AODV 44 [0 ffffffff 6 800] ------- [6:255 -1:255 1 0] [0x1 1 [6 2] 4.000000] (HELLO)
r 0.001847138 _5_ RTR  --- 0 AODV 44 [0 ffffffff 6 800] ------- [6:255 -1:255 1 0] [0x1 1 [6 2] 4.000000] (HELLO)
r 0.001847138 _7_ RTR  --- 0 AODV 44 [0 ffffffff 6 800] ------- [6:255 -1:255 1 0] [0x1 1 [6 2] 4.000000] (HELLO)
s 0.001847138 _1_ RTR  --- 0 AODV 26 [0 0 0 0] ------- [1:255 6:255 1 6] [0x12 0 [1776105039 1041146866] 0.000000] (HELLO)
s 0.001847138 _5_ RTR  --- 0 AODV 26 [0 0 0 0] ------- [5:255 6:255 1 6] [0x12 0 [1776105039 1041146866] 0.000000] (HELLO)
s 0.001847138 _7_ RTR  --- 0 AODV 26 [0 0 0 0] ------- [7:255 6:255 1 6] [0x12 0 [1776105039 1041146866] 0.000000] (HELLO)
r 0.002745414 _5_ RTR  --- 0 AODV 44 [0 ffffffff 3 800] ------- [3:255 -1:255 1 0] [0x1 1 [3 2] 4.000000] (HELLO)
r 0.002745414 _0_ RTR  --- 0 AODV 44 [0 ffffffff 3 800] ------- [3:255 -1:255 1 0] [0x1 1 [3 2] 4.000000] (HELLO)
r 0.002745414 _1_ RTR  --- 0 AODV 44 [0 ffffffff 3 800] ------- [3:255 -1:255 1 0] [0x1 1 [3 2] 4.000000] (HELLO)
r 0.002745414 _6_ RTR  --- 0 AODV 44 [0 ffffffff 3 800] ------- [3:255 -1:255 1 0] [0x1 1 [3 2] 4.000000] (HELLO)
s 0.002745414 _5_ RTR  --- 0 AODV 26 [0 0 0 0] ------- [5:255 3:255 1 3] [0x12 0 [1776105037 1043244018] 0.000000] (HELLO)
s 0.002745414 _0_ RTR  --- 0 AODV 26 [0 0 0 0] ------- [0:255 3:255 1 3] [0x12 0 [1776105037 1043244018] 0.000000] (HELLO)
s 0.002745414 _1_ RTR  --- 0 AODV 26 [0 0 0 0] ------- [1:255 3:255 1 3] [0x12 0 [1776105037 1043244018] 0.000000] (HELLO)
s 0.002745414 _6_ RTR  --- 0 AODV 26 [0 0 0 0] ------- [6:255 3:255 1 3] [0x12 0 [1776105037 1043244018] 0.000000] (HELLO)
r 0.002745609 _4_ RTR  --- 0 AODV 44 [0 ffffffff 3 800] ------- [3:255 -1:255 1 0] [0x1 1 [3 2] 4.000000] (HELLO)
s 0.002745609 _4_ RTR  --- 0 AODV 26 [0 0 0 0] ------- [4:255 3:255 1 3] [0x12 0 [1776105039 1041146866] 0.000000] (HELLO)
r 0.004137024 _6_ RTR  --- 0 AODV 26 [13a 6 4 800] ------- [4:255 6:255 1 6] [0x12 0 [1776105037 1043244018] 0.000000] (HELLO)
r 0.005842438 _4_ RTR  --- 0 AODV 26 [13a 4 6 800] ------- [6:255 4:255 1 4] [0x12 0 [1776105037 1043244018] 0.000000] (HELLO)
r 0.007035381 _3_ RTR  --- 0 AODV 44 [0 ffffffff 1 800] ------- [1:255 -1:255 1 0] [0x1 1 [1 2] 4.000000] (HELLO)
r 0.007035381 _4_ RTR  --- 0 AODV 44 [0 ffffffff 1 800] ------- [1:255 -1:255 1 0] [0x1 1 [1 2] 4.000000] (HELLO)
s 0.007035381 _3_ RTR  --- 0 AODV 26 [0 0 0 0] ------- [3:255 1:255 1 1] [0x12 0 [1776105037 1043244018] 0.000000] (HELLO)
s 0.007035381 _4_ RTR  --- 0 AODV 26 [0 0 0 0] ------- [4:255 1:255 1 1] [0x12 0 [1776105037 1043244018] 0.000000] (HELLO)
r 0.007035576 _0_ RTR  --- 0 AODV 44 [0 ffffffff 1 800] ------- [1:255 -1:255 1 0] [0x1 1 [1 2] 4.000000] (HELLO)
r 0.007035576 _6_ RTR  --- 0 AODV 44 [0 ffffffff 1 800] ------- [1:255 -1:255 1 0] [0x1 1 [1 2] 4.000000] (HELLO)
r 0.007035576 _2_ RTR  --- 0 AODV 44 [0 ffffffff 1 800] ------- [1:255 -1:255 1 0] [0x1 1 [1 2] 4.000000] (HELLO)
s 0.007035576 _0_ RTR  --- 0 AODV 26 [0 0 0 0] ------- [0:255 1:255 1 1] [0x12 0 [1776105039 1041146866] 0.000000] (HELLO)
s 0.007035576 _6_ RTR  --- 0 AODV 26 [0 0 0 0] ------- [6:255 1:255 1 1] [0x12 0 [1776105039 1041146866] 0.000000] (HELLO)
s 0.007035576 _2_ RTR  --- 0 AODV 26 [0 0 0 0] ------- [2:255 1:255 1 1] [0x12 0 [1776105039 1041146866] 0.000000] (HELLO)
r 0.007954047 _4_ RTR  --- 0 AODV 44 [0 ffffffff 2 800] ------- [2:255 -1:255 1 0] [0x1 1 [2 2] 4.000000] (HELLO)
s 0.007954047 _4_ RTR  --- 0 AODV 26 [0 0 0 0] ------- [4:255 2:255 1 2] [0x12 0 [1776105037 1043244018] 0.000000] (HELLO)
r 0.007954243 _1_ RTR  --- 0 AODV 44 [0 ffffffff 2 800] ------- [2:255 -1:255 1 0] [0x1 1 [2 2] 4.000000] (HELLO)
r 0.007954243 _7_ RTR  --- 0 AODV 44 [0 ffffffff 2 800] ------- [2:255 -1:255 1 0] [0x1 1 [2 2] 4.000000] (HELLO)
s 0.007954243 _1_ RTR  --- 0 AODV 26 [0 0 0 0] ------- [1:255 2:255 1 2] [0x12 0 [1776105039 1041146866] 0.000000] (HELLO)
s 0.007954243 _7_ RTR  --- 0 AODV 26 [0 0 0 0] ------- [7:255 2:255 1 2] [0x12 0 [1776105039 1041146866] 0.000000] (HELLO)
r 0.008812714 _4_ RTR  --- 0 AODV 44 [0 ffffffff 7 800] ------- [7:255 -1:255 1 0] [0x1 1 [7 2] 4.000000] (HELLO)
s 0.008812714 _4_ RTR  --- 0 AODV 26 [0 0 0 0] ------- [4:255 7:255 1 7] [0x12 0 [1776105037 1043244018] 0.000000] (HELLO)
r 0.008812909 _2_ RTR  --- 0 AODV 44 [0 ffffffff 7 800] ------- [7:255 -1:255 1 0] [0x1 1 [7 2] 4.000000] (HELLO)
r 0.008812909 _6_ RTR  --- 0 AODV 44 [0 ffffffff 7 800] ------- [7:255 -1:255 1 0] [0x1 1 [7 2] 4.000000] (HELLO)
s 0.008812909 _2_ RTR  --- 0 AODV 26 [0 0 0 0] ------- [2:255 7:255 1 7] [0x12 0 [1776105039 1041146866] 0.000000] (HELLO)
s 0.008812909 _6_ RTR  --- 0 AODV 26 [0 0 0 0] ------- [6:255 7:255 1 7] [0x12 0 [1776105039 1041146866] 0.000000] (HELLO)
r 0.010184243 _2_ RTR  --- 0 AODV 26 [13a 2 7 800] ------- [7:255 2:255 1 2] [0x12 0 [1776105039 1041146866] 0.000000] (HELLO)
r 0.011950714 _3_ RTR  --- 0 AODV 26 [13a 3 4 800] ------- [4:255 3:255 1 3] [0x12 0 [1776105039 1041146866] 0.000000] (HELLO)
r 0.013636600 _3_ RTR  --- 0 AODV 26 [13a 3 1 800] ------- [1:255 3:255 1 3] [0x12 0 [1776105037 1043244018] 0.000000] (HELLO)
r 0.014829542 _3_ RTR  --- 0 AODV 44 [0 ffffffff 0 800] ------- [0:255 -1:255 1 0] [0x1 1 [0 2] 4.000000] (HELLO)
s 0.014829542 _3_ RTR  --- 0 AODV 26 [0 0 0 0] ------- [3:255 0:255 1 0] [0x12 0 [1776105037 1043244018] 0.000000] (HELLO)
r 0.014829738 _5_ RTR  --- 0 AODV 44 [0 ffffffff 0 800] ------- [0:255 -1:255 1 0] [0x1 1 [0 2] 4.000000] (HELLO)
r 0.014829738 _1_ RTR  --- 0 AODV 44 [0 ffffffff 0 800] ------- [0:255 -1:255 1 0] [0x1 1 [0 2] 4.000000] (HELLO)
s 0.014829738 _5_ RTR  --- 0 AODV 26 [0 0 0 0] ------- [5:255 0:255 1 0] [0x12 0 [1776105039 1041146866] 0.000000] (HELLO)
s 0.014829738 _1_ RTR  --- 0 AODV 26 [0 0 0 0] ------- [1:255 0:255 1 0] [0x12 0 [1776105039 1041146866] 0.000000] (HELLO)
r 0.016301738 _2_ RTR  --- 0 AODV 26 [13a 2 1 800] ------- [1:255 2:255 1 2] [0x12 0 [1776105039 1041146866] 0.000000] (HELLO)
r 0.018027738 _1_ RTR  --- 0 AODV 26 [13a 1 2 800] ------- [2:255 1:255 1 1] [0x12 0 [1776105039 1041146866] 0.000000] (HELLO)
r 0.020663428 _3_ RTR  --- 0 AODV 26 [13a 3 6 800] ------- [6:255 3:255 1 3] [0x12 0 [1776105037 1043244018] 0.000000] (HELLO)
r 0.022469509 _7_ RTR  --- 0 AODV 26 [13a 7 4 800] ------- [4:255 7:255 1 7] [0x12 0 [1776105037 1043244018] 0.000000] (HELLO)
r 0.024195509 _6_ RTR  --- 0 AODV 26 [13a 6 7 800] ------- [7:255 6:255 1 6] [0x12 0 [1776105039 1041146866] 0.000000] (HELLO)
r 0.027050176 _0_ RTR  --- 0 AODV 26 [13a 0 5 800] ------- [5:255 0:255 1 0] [0x12 0 [1776105039 1041146866] 0.000000] (HELLO)
r 0.028916257 _3_ RTR  --- 0 AODV 26 [13a 3 5 800] ------- [5:255 3:255 1 3] [0x12 0 [1776105037 1043244018] 0.000000] (HELLO)
r 0.030622728 _7_ RTR  --- 0 AODV 26 [13a 7 6 800] ------- [6:255 7:255 1 7] [0x12 0 [1776105039 1041146866] 0.000000] (HELLO)
r 0.032348142 _4_ RTR  --- 0 AODV 26 [13a 4 7 800] ------- [7:255 4:255 1 4] [0x12 0 [1776105037 1043244018] 0.000000] (HELLO)
r 0.034213556 _2_ RTR  --- 0 AODV 26 [13a 2 4 800] ------- [4:255 2:255 1 2] [0x12 0 [1776105037 1043244018] 0.000000] (HELLO)
r 0.036019556 _7_ RTR  --- 0 AODV 26 [13a 7 2 800] ------- [2:255 7:255 1 7] [0x12 0 [1776105039 1041146866] 0.000000] (HELLO)
r 0.037745442 _1_ RTR  --- 0 AODV 26 [13a 1 4 800] ------- [4:255 1:255 1 1] [0x12 0 [1776105037 1043244018] 0.000000] (HELLO)
r 0.039542025 _1_ RTR  --- 0 AODV 26 [13a 1 0 800] ------- [0:255 1:255 1 1] [0x12 0 [1776105039 1041146866] 0.000000] (HELLO)
r 0.041328106 _3_ RTR  --- 0 AODV 26 [13a 3 0 800] ------- [0:255 3:255 1 3] [0x12 0 [1776105037 1043244018] 0.000000] (HELLO)
r 0.043054577 _6_ RTR  --- 0 AODV 26 [13a 6 5 800] ------- [5:255 6:255 1 6] [0x12 0 [1776105039 1041146866] 0.000000] (HELLO)
r 0.044740463 _6_ RTR  --- 0 AODV 26 [13a 6 3 800] ------- [3:255 6:255 1 6] [0x12 0 [1776105037 1043244018] 0.000000] (HELLO)
r 0.046506463 _1_ RTR  --- 0 AODV 26 [13a 1 6 800] ------- [6:255 1:255 1 1] [0x12 0 [1776105039 1041146866] 0.000000] (HELLO)
r 0.048372348 _0_ RTR  --- 0 AODV 26 [13a 0 3 800] ------- [3:255 0:255 1 0] [0x12 0 [1776105037 1043244018] 0.000000] (HELLO)
r 0.050079015 _0_ RTR  --- 0 AODV 26 [13a 0 1 800] ------- [1:255 0:255 1 0] [0x12 0 [1776105039 1041146866] 0.000000] (HELLO)
r 0.051984900 _1_ RTR  --- 0 AODV 26 [13a 1 3 800] ------- [3:255 1:255 1 1] [0x12 0 [1776105037 1043244018] 0.000000] (HELLO)
r 0.053651372 _4_ RTR  --- 0 AODV 26 [13a 4 3 800] ------- [3:255 4:255 1 4] [0x12 0 [1776105039 1041146866] 0.000000] (HELLO)
r 0.055557843 _6_ RTR  --- 0 AODV 26 [13a 6 1 800] ------- [1:255 6:255 1 6] [0x12 0 [1776105039 1041146866] 0.000000] (HELLO)
r 0.057543924 _4_ RTR  --- 0 AODV 26 [13a 4 1 800] ------- [1:255 4:255 1 4] [0x12 0 [1776105037 1043244018] 0.000000] (HELLO)
r 0.059229810 _4_ RTR  --- 0 AODV 26 [13a 4 2 800] ------- [2:255 4:255 1 4] [0x12 0 [1776105037 1043244018] 0.000000] (HELLO)
s 0.750169789 _0_ RTR  --- 0 AODV 44 [0 0 0 0] ------- [0:255 -1:255 1 0] [0x1 1 [0 6] 4.000000] (HELLO)
r 0.751338260 _3_ RTR  --- 0 AODV 44 [0 ffffffff 0 800] ------- [0:255 -1:255 1 0] [0x1 1 [0 6] 4.000000] (HELLO)
s 0.751338260 _3_ RTR  --- 0 AODV 26 [0 0 0 0] ------- [3:255 0:255 1 0] [0x12 0 [1776105037 1043244018] 0.000000] (HELLO)
r 0.751338455 _5_ RTR  --- 0 AODV 44 [0 ffffffff 0 800] ------- [0:255 -1:255 1 0] [0x1 1 [0 6] 4.000000] (HELLO)
r 0.751338455 _1_ RTR  --- 0 AODV 44 [0 ffffffff 0 800] ------- [0:255 -1:255 1 0] [0x1 1 [0 6] 4.000000] (HELLO)
s 0.751338455 _5_ RTR  --- 0 AODV 26 [0 0 0 0] ------- [5:255 0:255 1 0] [0x12 0 [1776105039 1041146866] 0.000000] (HELLO)
s 0.751338455 _1_ RTR  --- 0 AODV 26 [0 0 0 0] ------- [1:255 0:255 1 0] [0x12 0 [1776105039 1041146866] 0.000000] (HELLO)
r 0.752979674 _0_ RTR  --- 0 AODV 26 [13a 0 3 800] ------- [3:255 0:255 1 0] [0x12 0 [1776105037 1043244018] 0.000000] (HELLO)
r 0.754686341 _0_ RTR  --- 0 AODV 26 [13a 0 1 800] ------- [1:255 0:255 1 0] [0x12 0 [1776105039 1041146866] 0.000000] (HELLO)
r 0.756422617 _0_ RTR  --- 0 AODV 26 [13a 0 5 800] ------- [5:255 0:255 1 0] [0x12 0 [1776105039 1041146866] 0.000000] (HELLO)
s 0.757102330 _2_ RTR  --- 0 AODV 44 [0 0 0 0] ------- [2:255 -1:255 1 0] [0x1 1 [2 8] 4.000000] (HELLO)
r 0.758270802 _4_ RTR  --- 0 AODV 44 [0 ffffffff 2 800] ------- [2:255 -1:255 1 0] [0x1 1 [2 8] 4.000000] (HELLO)
s 0.758270802 _4_ RTR  --- 0 AODV 26 [0 0 0 0] ------- [4:255 2:255 1 2] [0x12 0 [1776105037 1043244018] 0.000000] (HELLO)
r 0.758270997 _1_ RTR  --- 0 AODV 44 [0 ffffffff 2 800] ------- [2:255 -1:255 1 0] [0x1 1 [2 8] 4.000000] (HELLO)
r 0.758270997 _7_ RTR  --- 0 AODV 44 [0 ffffffff 2 800] ------- [2:255 -1:255 1 0] [0x1 1 [2 8] 4.000000] (HELLO)
s 0.758270997 _1_ RTR  --- 0 AODV 26 [0 0 0 0] ------- [1:255 2:255 1 2] [0x12 0 [1776105039 1041146866] 0.000000] (HELLO)
s 0.758270997 _7_ RTR  --- 0 AODV 26 [0 0 0 0] ------- [7:255 2:255 1 2] [0x12 0 [1776105039 1041146866] 0.000000] (HELLO)
r 0.759792997 _2_ RTR  --- 0 AODV 26 [13a 2 1 800] ------- [1:255 2:255 1 2] [0x12 0 [1776105039 1041146866] 0.000000] (HELLO)
r 0.761589273 _2_ RTR  --- 0 AODV 26 [13a 2 7 800] ------- [7:255 2:255 1 2] [0x12 0 [1776105039 1041146866] 0.000000] (HELLO)
r 0.763475159 _2_ RTR  --- 0 AODV 26 [13a 2 4 800] ------- [4:255 2:255 1 2] [0x12 0 [1776105037 1043244018] 0.000000] (HELLO)
s 0.794061336 _3_ RTR  --- 0 AODV 44 [0 0 0 0] ------- [3:255 -1:255 1 0] [0x1 1 [3 10] 4.000000] (HELLO)
r 0.794989807 _5_ RTR  --- 0 AODV 44 [0 ffffffff 3 800] ------- [3:255 -1:255 1 0] [0x1 1 [3 10] 4.000000] (HELLO)
r 0.794989807 _0_ RTR  --- 0 AODV 44 [0 ffffffff 3 800] ------- [3:255 -1:255 1 0] [0x1 1 [3 10] 4.000000] (HELLO)
r 0.794989807 _1_ RTR  --- 0 AODV 44 [0 ffffffff 3 800] ------- [3:255 -1:255 1 0] [0x1 1 [3 10] 4.000000] (HELLO)
r 0.794989807 _6_ RTR  --- 0 AODV 44 [0 ffffffff 3 800] ------- [3:255 -1:255 1 0] [0x1 1 [3 10] 4.000000] (HELLO)
s 0.794989807 _5_ RTR  --- 0 AODV 26 [0 0 0 0] ------- [5:255 3:255 1 3] [0x12 0 [1776105037 1043244018] 0.000000] (HELLO)
s 0.794989807 _0_ RTR  --- 0 AODV 26 [0 0 0 0] ------- [0:255 3:255 1 3] [0x12 0 [1776105037 1043244018] 0.000000] (HELLO)
s 0.794989807 _1_ RTR  --- 0 AODV 26 [0 0 0 0] ------- [1:255 3:255 1 3] [0x12 0 [1776105037 1043244018] 0.000000] (HELLO)
s 0.794989807 _6_ RTR  --- 0 AODV 26 [0 0 0 0] ------- [6:255 3:255 1 3] [0x12 0 [1776105037 1043244018] 0.000000] (HELLO)
r 0.794990002 _4_ RTR  --- 0 AODV 44 [0 ffffffff 3 800] ------- [3:255 -1:255 1 0] [0x1 1 [3 10] 4.000000] (HELLO)
s 0.794990002 _4_ RTR  --- 0 AODV 26 [0 0 0 0] ------- [4:255 3:255 1 3] [0x12 0 [1776105039 1041146866] 0.000000] (HELLO)
r 0.796451221 _3_ RTR  --- 0 AODV 26 [13a 3 1 800] ------- [1:255 3:255 1 3] [0x12 0 [1776105037 1043244018] 0.000000] (HELLO)
r 0.799484356 _3_ RTR  --- 0 AODV 26 [13a 3 5 800] ------- [5:255 3:255 1 3] [0x12 0 [1776105037 1043244018] 0.000000] (HELLO)
r 0.801270242 _3_ RTR  --- 0 AODV 26 [13a 3 0 800] ------- [0:255 3:255 1 3] [0x12 0 [1776105037 1043244018] 0.000000] (HELLO)
r 0.803326127 _3_ RTR  --- 0 AODV 26 [13a 3 6 800] ------- [6:255 3:255 1 3] [0x12 0 [1776105037 1043244018] 0.000000] (HELLO)
r 0.805272794 _3_ RTR  --- 0 AODV 26 [13a 3 4 800] ------- [4:255 3:255 1 3] [0x12 0 [1776105039 1041146866] 0.000000] (HELLO)
s 0.906480886 _6_ RTR  --- 0 AODV 44 [0 0 0 0] ------- [6:255 -1:255 1 0] [0x1 1 [6 10] 4.000000] (HELLO)
r 0.907929357 _3_ RTR  --- 0 AODV 44 [0 ffffffff 6 800] ------- [6:255 -1:255 1 0] [0x1 1 [6 10] 4.000000] (HELLO)
r 0.907929357 _4_ RTR  --- 0 AODV 44 [0 ffffffff 6 800] ------- [6:255 -1:255 1 0] [0x1 1 [6 10] 4.000000] (HELLO)
s 0.907929357 _3_ RTR  --- 0 AODV 26 [0 0 0 0] ------- [3:255 6:255 1 6] [0x12 0 [1776105037 1043244018] 0.000000] (HELLO)
s 0.907929357 _4_ RTR  --- 0 AODV 26 [0 0 0 0] ------- [4:255 6:255 1 6] [0x12 0 [1776105037 1043244018] 0.000000] (HELLO)
r 0.907929552 _1_ RTR  --- 0 AODV 44 [0 ffffffff 6 800] ------- [6:255 -1:255 1 0] [0x1 1 [6 10] 4.000000] (HELLO)
r 0.907929552 _5_ RTR  --- 0 AODV 44 [0 ffffffff 6 800] ------- [6:255 -1:255 1 0] [0x1 1 [6 10] 4.000000] (HELLO)
r 0.907929552 _7_ RTR  --- 0 AODV 44 [0 ffffffff 6 800] ------- [6:255 -1:255 1 0] [0x1 1 [6 10] 4.000000] (HELLO)
s 0.907929552 _1_ RTR  --- 0 AODV 26 [0 0 0 0] ------- [1:255 6:255 1 6] [0x12 0 [1776105039 1041146866] 0.000000] (HELLO)
s 0.907929552 _5_ RTR  --- 0 AODV 26 [0 0 0 0] ------- [5:255 6:255 1 6] [0x12 0 [1776105039 1041146866] 0.000000] (HELLO)
s 0.907929552 _7_ RTR  --- 0 AODV 26 [0 0 0 0] ------- [7:255 6:255 1 6] [0x12 0 [1776105039 1041146866] 0.000000] (HELLO)
r 0.909451552 _6_ RTR  --- 0 AODV 26 [13a 6 7 800] ------- [7:255 6:255 1 6] [0x12 0 [1776105039 1041146866] 0.000000] (HELLO)
r 0.911157438 _6_ RTR  --- 0 AODV 26 [13a 6 4 800] ------- [4:255 6:255 1 6] [0x12 0 [1776105037 1043244018] 0.000000] (HELLO)
r 0.912883324 _6_ RTR  --- 0 AODV 26 [13a 6 3 800] ------- [3:255 6:255 1 6] [0x12 0 [1776105037 1043244018] 0.000000] (HELLO)
r 0.914809990 _6_ RTR  --- 0 AODV 26 [13a 6 1 800] ------- [1:255 6:255 1 6] [0x12 0 [1776105039 1041146866] 0.000000] (HELLO)
r 0.916546267 _6_ RTR  --- 0 AODV 26 [13a 6 5 800] ------- [5:255 6:255 1 6] [0x12 0 [1776105039 1041146866] 0.000000] (HELLO)
s 0.970586691 _4_ RTR  --- 0 AODV 44 [0 0 0 0] ------- [4:255 -1:255 1 0] [0x1 1 [4 12] 4.000000] (HELLO)
r 0.971875162 _6_ RTR  --- 0 AODV 44 [0 ffffffff 4 800] ------- [4:255 -1:255 1 0] [0x1 1 [4 12] 4.000000] (HELLO)
r 0.971875162 _1_ RTR  --- 0 AODV 44 [0 ffffffff 4 800] ------- [4:255 -1:255 1 0] [0x1 1 [4 12] 4.000000] (HELLO)
r 0.971875162 _2_ RTR  --- 0 AODV 44 [0 ffffffff 4 800] ------- [4:255 -1:255 1 0] [0x1 1 [4 12] 4.000000] (HELLO)
r 0.971875162 _7_ RTR  --- 0 AODV 44 [0 ffffffff 4 800] ------- [4:255 -1:255 1 0] [0x1 1 [4 12] 4.000000] (HELLO)
s 0.971875162 _6_ RTR  --- 0 AODV 26 [0 0 0 0] ------- [6:255 4:255 1 4] [0x12 0 [1776105037 1043244018] 0.000000] (HELLO)
s 0.971875162 _1_ RTR  --- 0 AODV 26 [0 0 0 0] ------- [1:255 4:255 1 4] [0x12 0 [1776105037 1043244018] 0.000000] (HELLO)
s 0.971875162 _2_ RTR  --- 0 AODV 26 [0 0 0 0] ------- [2:255 4:255 1 4] [0x12 0 [1776105037 1043244018] 0.000000] (HELLO)
s 0.971875162 _7_ RTR  --- 0 AODV 26 [0 0 0 0] ------- [7:255 4:255 1 4] [0x12 0 [1776105037 1043244018] 0.000000] (HELLO)
r 0.971875358 _3_ RTR  --- 0 AODV 44 [0 ffffffff 4 800] ------- [4:255 -1:255 1 0] [0x1 1 [4 12] 4.000000] (HELLO)
s 0.971875358 _3_ RTR  --- 0 AODV 26 [0 0 0 0] ------- [3:255 4:255 1 4] [0x12 0 [1776105039 1041146866] 0.000000] (HELLO)
r 0.973296577 _4_ RTR  --- 0 AODV 26 [13a 4 2 800] ------- [2:255 4:255 1 4] [0x12 0 [1776105037 1043244018] 0.000000] (HELLO)
r 0.975093159 _4_ RTR  --- 0 AODV 26 [13a 4 3 800] ------- [3:255 4:255 1 4] [0x12 0 [1776105039 1041146866] 0.000000] (HELLO)
r 0.976779045 _4_ RTR  --- 0 AODV 26 [13a 4 1 800] ------- [1:255 4:255 1 4] [0x12 0 [1776105037 1043244018] 0.000000] (HELLO)
r 0.978614931 _4_ RTR  --- 0 AODV 26 [13a 4 7 800] ------- [7:255 4:255 1 4] [0x12 0 [1776105037 1043244018] 0.000000] (HELLO)
r 0.980320816 _4_ RTR  --- 0 AODV 26 [13a 4 6 800] ------- [6:255 4:255 1 4] [0x12 0 [1776105037 1043244018] 0.000000] (HELLO)
s 1.027940358 _1_ RTR  --- 0 AODV 44 [0 0 0 0] ------- [1:255 -1:255 1 0] [0x1 1 [1 12] 4.000000] (HELLO)
r 1.028828829 _3_ RTR  --- 0 AODV 44 [0 ffffffff 1 800] ------- [1:255 -1:255 1 0] [0x1 1 [1 12] 4.000000] (HELLO)
r 1.028828829 _4_ RTR  --- 0 AODV 44 [0 ffffffff 1 800] ------- [1:255 -1:255 1 0] [0x1 1 [1 12] 4.000000] (HELLO)
s 1.028828829 _3_ RTR  --- 0 AODV 26 [0 0 0 0] ------- [3:255 1:255 1 1] [0x12 0 [1776105037 1043244018] 0.000000] (HELLO)
s 1.028828829 _4_ RTR  --- 0 AODV 26 [0 0 0 0] ------- [4:255 1:255 1 1] [0x12 0 [1776105037 1043244018] 0.000000] (HELLO)
r 1.028829025 _0_ RTR  --- 0 AODV 44 [0 ffffffff 1 800] ------- [1:255 -1:255 1 0] [0x1 1 [1 12] 4.000000] (HELLO)
r 1.028829025 _6_ RTR  --- 0 AODV 44 [0 ffffffff 1 800] ------- [1:255 -1:255 1 0] [0x1 1 [1 12] 4.000000] (HELLO)
r 1.028829025 _2_ RTR  --- 0 AODV 44 [0 ffffffff 1 800] ------- [1:255 -1:255 1 0] [0x1 1 [1 12] 4.000000] (HELLO)
s 1.028829025 _0_ RTR  --- 0 AODV 26 [0 0 0 0] ------- [0:255 1:255 1 1] [0x12 0 [1776105039 1041146866] 0.000000] (HELLO)
s 1.028829025 _6_ RTR  --- 0 AODV 26 [0 0 0 0] ------- [6:255 1:255 1 1] [0x12 0 [1776105039 1041146866] 0.000000] (HELLO)
s 1.028829025 _2_ RTR  --- 0 AODV 26 [0 0 0 0] ------- [2:255 1:255 1 1] [0x12 0 [1776105039 1041146866] 0.000000] (HELLO)
r 1.031256910 _1_ RTR  --- 0 AODV 26 [13a 1 3 800] ------- [3:255 1:255 1 1] [0x12 0 [1776105037 1043244018] 0.000000] (HELLO)
r 1.033283577 _1_ RTR  --- 0 AODV 26 [13a 1 6 800] ------- [6:255 1:255 1 1] [0x12 0 [1776105039 1041146866] 0.000000] (HELLO)
r 1.035119853 _1_ RTR  --- 0 AODV 26 [13a 1 2 800] ------- [2:255 1:255 1 1] [0x12 0 [1776105039 1041146866] 0.000000] (HELLO)
r 1.036916520 _1_ RTR  --- 0 AODV 26 [13a 1 0 800] ------- [0:255 1:255 1 1] [0x12 0 [1776105039 1041146866] 0.000000] (HELLO)
r 1.038712321 _1_ RTR  --- 0 AODV 26 [13a 1 4 800] ------- [4:255 1:255 1 1] [0x12 0 [1776105037 1043244018] 0.000000] (HELLO)
s 1.149577727 _5_ RTR  --- 0 AODV 44 [0 0 0 0] ------- [5:255 -1:255 1 0] [0x1 1 [5 8] 4.000000] (HELLO)
r 1.150446198 _3_ RTR  --- 0 AODV 44 [0 ffffffff 5 800] ------- [5:255 -1:255 1 0] [0x1 1 [5 8] 4.000000] (HELLO)
s 1.150446198 _3_ RTR  --- 0 AODV 26 [0 0 0 0] ------- [3:255 5:255 1 5] [0x12 0 [1776105037 1043244018] 0.000000] (HELLO)
r 1.150446393 _0_ RTR  --- 0 AODV 44 [0 ffffffff 5 800] ------- [5:255 -1:255 1 0] [0x1 1 [5 8] 4.000000] (HELLO)
r 1.150446393 _6_ RTR  --- 0 AODV 44 [0 ffffffff 5 800] ------- [5:255 -1:255 1 0] [0x1 1 [5 8] 4.000000] (HELLO)
s 1.150446393 _0_ RTR  --- 0 AODV 26 [0 0 0 0] ------- [0:255 5:255 1 5] [0x12 0 [1776105039 1041146866] 0.000000] (HELLO)
s 1.150446393 _6_ RTR  --- 0 AODV 26 [0 0 0 0] ------- [6:255 5:255 1 5] [0x12 0 [1776105039 1041146866] 0.000000] (HELLO)
r 1.151847612 _5_ RTR  --- 0 AODV 26 [13a 5 3 800] ------- [3:255 5:255 1 5] [0x12 0 [1776105037 1043244018] 0.000000] (HELLO)
r 1.154054279 _5_ RTR  --- 0 AODV 26 [13a 5 0 800] ------- [0:255 5:255 1 5] [0x12 0 [1776105039 1041146866] 0.000000] (HELLO)
r 1.155790555 _5_ RTR  --- 0 AODV 26 [13a 5 6 800] ------- [6:255 5:255 1 5] [0x12 0 [1776105039 1041146866] 0.000000] (HELLO)
s 1.158238026 _7_ RTR  --- 0 AODV 44 [0 0 0 0] ------- [7:255 -1:255 1 0] [0x1 1 [7 8] 4.000000] (HELLO)
r 1.159246497 _4_ RTR  --- 0 AODV 44 [0 ffffffff 7 800] ------- [7:255 -1:255 1 0] [0x1 1 [7 8] 4.000000] (HELLO)
s 1.159246497 _4_ RTR  --- 0 AODV 26 [0 0 0 0] ------- [4:255 7:255 1 7] [0x12 0 [1776105037 1043244018] 0.000000] (HELLO)
r 1.159246692 _2_ RTR  --- 0 AODV 44 [0 ffffffff 7 800] ------- [7:255 -1:255 1 0] [0x1 1 [7 8] 4.000000] (HELLO)
r 1.159246692 _6_ RTR  --- 0 AODV 44 [0 ffffffff 7 800] ------- [7:255 -1:255 1 0] [0x1 1 [7 8] 4.000000] (HELLO)
s 1.159246692 _2_ RTR  --- 0 AODV 26 [0 0 0 0] ------- [2:255 7:255 1 7] [0x12 0 [1776105039 1041146866] 0.000000] (HELLO)
s 1.159246692 _6_ RTR  --- 0 AODV 26 [0 0 0 0] ------- [6:255 7:255 1 7] [0x12 0 [1776105039 1041146866] 0.000000] (HELLO)
r 1.160748692 _7_ RTR  --- 0 AODV 26 [13a 7 2 800] ------- [2:255 7:255 1 7] [0x12 0 [1776105039 1041146866] 0.000000] (HELLO)
r 1.162544969 _7_ RTR  --- 0 AODV 26 [13a 7 6 800] ------- [6:255 7:255 1 7] [0x12 0 [1776105039 1041146866] 0.000000] (HELLO)
r 1.164510854 _7_ RTR  --- 0 AODV 26 [13a 7 4 800] ------- [4:255 7:255 1 7] [0x12 0 [1776105037 1043244018] 0.000000] (HELLO)
s 1.513948525 _0_ RTR  --- 0 AODV 44 [0 0 0 0] ------- [0:255 -1:255 1 0] [0x1 1 [0 8] 4.000000] (HELLO)
r 1.514816996 _3_ RTR  --- 0 AODV 44 [0 ffffffff 0 800] ------- [0:255 -1:255 1 0] [0x1 1 [0 8] 4.000000] (HELLO)
s 1.514816996 _3_ RTR  --- 0 AODV 26 [0 0 0 0] ------- [3:255 0:255 1 0] [0x12 0 [1776105037 1043244018] 0.000000] (HELLO)
r 1.514817191 _5_ RTR  --- 0 AODV 44 [0 ffffffff 0 800] ------- [0:255 -1:255 1 0] [0x1 1 [0 8] 4.000000] (HELLO)
r 1.514817191 _1_ RTR  --- 0 AODV 44 [0 ffffffff 0 800] ------- [0:255 -1:255 1 0] [0x1 1 [0 8] 4.000000] (HELLO)
s 1.514817191 _5_ RTR  --- 0 AODV 26 [0 0 0 0] ------- [5:255 0:255 1 0] [0x12 0 [1776105039 1041146866] 0.000000] (HELLO)
s 1.514817191 _1_ RTR  --- 0 AODV 26 [0 0 0 0] ------- [1:255 0:255 1 0] [0x12 0 [1776105039 1041146866] 0.000000] (HELLO)
r 1.516379191 _0_ RTR  --- 0 AODV 26 [13a 0 5 800] ------- [5:255 0:255 1 0] [0x12 0 [1776105039 1041146866] 0.000000] (HELLO)
r 1.518245077 _0_ RTR  --- 0 AODV 26 [13a 0 3 800] ------- [3:255 0:255 1 0] [0x12 0 [1776105037 1043244018] 0.000000] (HELLO)
r 1.520111744 _0_ RTR  --- 0 AODV 26 [13a 0 1 800] ------- [1:255 0:255 1 0] [0x12 0 [1776105039 1041146866] 0.000000] (HELLO)
s 1.837528918 _1_ RTR  --- 0 AODV 44 [0 0 0 0] ------- [1:255 -1:255 1 0] [0x1 1 [1 12] 4.000000] (HELLO)
r 1.838437390 _3_ RTR  --- 0 AODV 44 [0 ffffffff 1 800] ------- [1:255 -1:255 1 0] [0x1 1 [1 12] 4.000000] (HELLO)
r 1.838437390 _4_ RTR  --- 0 AODV 44 [0 ffffffff 1 800] ------- [1:255 -1:255 1 0] [0x1 1 [1 12] 4.000000] (HELLO)
s 1.838437390 _3_ RTR  --- 0 AODV 26 [0 0 0 0] ------- [3:255 1:255 1 1] [0x12 0 [1776105037 1043244018] 0.000000] (HELLO)
s 1.838437390 _4_ RTR  --- 0 AODV 26 [0 0 0 0] ------- [4:255 1:255 1 1] [0x12 0 [1776105037 1043244018] 0.000000] (HELLO)
r 1.838437585 _0_ RTR  --- 0 AODV 44 [0 ffffffff 1 800] ------- [1:255 -1:255 1 0] [0x1 1 [1 12] 4.000000] (HELLO)
r 1.838437585 _6_ RTR  --- 0 AODV 44 [0 ffffffff 1 800] ------- [1:255 -1:255 1 0] [0x1 1 [1 12] 4.000000] (HELLO)
r 1.838437585 _2_ RTR  --- 0 AODV 44 [0 ffffffff 1 800] ------- [1:255 -1:255 1 0] [0x1 1 [1 12] 4.000000] (HELLO)
s 1.838437585 _0_ RTR  --- 0 AODV 26 [0 0 0 0] ------- [0:255 1:255 1 1] [0x12 0 [1776105039 1041146866] 0.000000] (HELLO)
s 1.838437585 _6_ RTR  --- 0 AODV 26 [0 0 0 0] ------- [6:255 1:255 1 1] [0x12 0 [1776105039 1041146866] 0.000000] (HELLO)
s 1.838437585 _2_ RTR  --- 0 AODV 26 [0 0 0 0] ------- [2:255 1:255 1 1] [0x12 0 [1776105039 1041146866] 0.000000] (HELLO)
r 1.839838804 _1_ RTR  --- 0 AODV 26 [13a 1 4 800] ------- [4:255 1:255 1 1] [0x12 0 [1776105037 1043244018] 0.000000] (HELLO)
r 1.841635387 _1_ RTR  --- 0 AODV 26 [13a 1 0 800] ------- [0:255 1:255 1 1] [0x12 0 [1776105039 1041146866] 0.000000] (HELLO)
s 1.843282809 _6_ RTR  --- 0 AODV 44 [0 0 0 0] ------- [6:255 -1:255 1 0] [0x1 1 [6 12] 4.000000] (HELLO)
r 1.843532053 _1_ RTR  --- 0 AODV 26 [13a 1 2 800] ------- [2:255 1:255 1 1] [0x12 0 [1776105039 1041146866] 0.000000] (HELLO)
r 1.845267855 _1_ RTR  --- 0 AODV 26 [13a 1 3 800] ------- [3:255 1:255 1 1] [0x12 0 [1776105037 1043244018] 0.000000] (HELLO)
r 1.847174521 _1_ RTR  --- 0 AODV 26 [13a 1 6 800] ------- [6:255 1:255 1 1] [0x12 0 [1776105039 1041146866] 0.000000] (HELLO)
r 1.848807660 _3_ RTR  --- 0 AODV 44 [0 ffffffff 6 800] ------- [6:255 -1:255 1 0] [0x1 1 [6 12] 4.000000] (HELLO)
r 1.848807660 _4_ RTR  --- 0 AODV 44 [0 ffffffff 6 800] ------- [6:255 -1:255 1 0] [0x1 1 [6 12] 4.000000] (HELLO)
s 1.848807660 _3_ RTR  --- 0 AODV 26 [0 0 0 0] ------- [3:255 6:255 1 6] [0x12 0 [1776105037 1043244018] 0.000000] (HELLO)
s 1.848807660 _4_ RTR  --- 0 AODV 26 [0 0 0 0] ------- [4:255 6:255 1 6] [0x12 0 [1776105037 1043244018] 0.000000] (HELLO)
r 1.848807855 _1_ RTR  --- 0 AODV 44 [0 ffffffff 6 800] ------- [6:255 -1:255 1 0] [0x1 1 [6 12] 4.000000] (HELLO)
r 1.848807855 _5_ RTR  --- 0 AODV 44 [0 ffffffff 6 800] ------- [6:255 -1:255 1 0] [0x1 1 [6 12] 4.000000] (HELLO)
r 1.848807855 _7_ RTR  --- 0 AODV 44 [0 ffffffff 6 800] ------- [6:255 -1:255 1 0] [0x1 1 [6 12] 4.000000] (HELLO)
s 1.848807855 _1_ RTR  --- 0 AODV 26 [0 0 0 0] ------- [1:255 6:255 1 6] [0x12 0 [1776105039 1041146866] 0.000000] (HELLO)
s 1.848807855 _5_ RTR  --- 0 AODV 26 [0 0 0 0] ------- [5:255 6:255 1 6] [0x12 0 [1776105039 1041146866] 0.000000] (HELLO)
s 1.848807855 _7_ RTR  --- 0 AODV 26 [0 0 0 0] ------- [7:255 6:255 1 6] [0x12 0 [1776105039 1041146866] 0.000000] (HELLO)
r 1.850209074 _6_ RTR  --- 0 AODV 26 [13a 6 4 800] ------- [4:255 6:255 1 6] [0x12 0 [1776105037 1043244018] 0.000000] (HELLO)
r 1.852245656 _6_ RTR  --- 0 AODV 26 [13a 6 5 800] ------- [5:255 6:255 1 6] [0x12 0 [1776105039 1041146866] 0.000000] (HELLO)
r 1.853982323 _6_ RTR  --- 0 AODV 26 [13a 6 7 800] ------- [7:255 6:255 1 6] [0x12 0 [1776105039 1041146866] 0.000000] (HELLO)
r 1.858083182 _6_ RTR  --- 0 AODV 26 [13a 6 1 800] ------- [1:255 6:255 1 6] [0x12 0 [1776105039 1041146866] 0.000000] (HELLO)
r 1.860189068 _6_ RTR  --- 0 AODV 26 [13a 6 3 800] ------- [3:255 6:255 1 6] [0x12 0 [1776105037 1043244018] 0.000000] (HELLO)
s 1.951261413 _3_ RTR  --- 0 AODV 44 [0 0 0 0] ------- [3:255 -1:255 1 0] [0x1 1 [3 12] 4.000000] (HELLO)
r 1.952689884 _5_ RTR  --- 0 AODV 44 [0 ffffffff 3 800] ------- [3:255 -1:255 1 0] [0x1 1 [3 12] 4.000000] (HELLO)
r 1.952689884 _0_ RTR  --- 0 AODV 44 [0 ffffffff 3 800] ------- [3:255 -1:255 1 0] [0x1 1 [3 12] 4.000000] (HELLO)
r 1.952689884 _1_ RTR  --- 0 AODV 44 [0 ffffffff 3 800] ------- [3:255 -1:255 1 0] [0x1 1 [3 12] 4.000000] (HELLO)
r 1.952689884 _6_ RTR  --- 0 AODV 44 [0 ffffffff 3 800] ------- [3:255 -1:255 1 0] [0x1 1 [3 12] 4.000000] (HELLO)
s 1.952689884 _5_ RTR  --- 0 AODV 26 [0 0 0 0] ------- [5:255 3:255 1 3] [0x12 0 [1776105037 1043244018] 0.000000] (HELLO)
s 1.952689884 _0_ RTR  --- 0 AODV 26 [0 0 0 0] ------- [0:255 3:255 1 3] [0x12 0 [1776105037 1043244018] 0.000000] (HELLO)
s 1.952689884 _1_ RTR  --- 0 AODV 26 [0 0 0 0] ------- [1:255 3:255 1 3] [0x12 0 [1776105037 1043244018] 0.000000] (HELLO)