Sconfig 0.00000 tap: on snoop: rts? on errs? on
Sconfig 0.00000 salvage: on !bd replies? on
Sconfig 0.00000 grat error: on grat reply: on
Sconfig 0.00000 $reply for props: on ring 0 search: on
Sconfig 0.00000 using MOBICACHE
s 15.000000000 _0_ AGT  --- 0 cbr 512 [0 0 0 0] ------- [0:0 19:0 32 0] [0] 0 0
r 15.000000000 _0_ RTR  --- 0 cbr 512 [0 0 0 0] ------- [0:0 19:0 32 0] [0] 0 0
s 15.000000000 _1_ AGT  --- 2 cbr 512 [0 0 0 0] ------- [1:0 21:0 32 0] [0] 0 0
r 15.000000000 _1_ RTR  --- 2 cbr 512 [0 0 0 0] ------- [1:0 21:0 32 0] [0] 0 0
s 15.000000000 _24_ AGT  --- 4 cbr 512 [0 0 0 0] ------- [24:0 25:0 32 0] [0] 0 0
r 15.000000000 _24_ RTR  --- 4 cbr 512 [0 0 0 0] ------- [24:0 25:0 32 0] [0] 0 0
s 15.007330027 _24_ RTR  --- 5 DSR 32 [0 0 0 0] ------- [24:255 25:255 32 0] 1 [1 1] [0 1 0 0->0] [0 0 0 0->0]
s 15.007567781 _0_ RTR  --- 1 DSR 32 [0 0 0 0] ------- [0:255 19:255 32 0] 1 [1 1] [0 1 0 0->0] [0 0 0 0->0]
r 15.008242360 _22_ RTR  --- 5 DSR 32 [0 ffffffff 18 800] ------- [24:255 25:255 32 0] 1 [1 1] [0 1 0 0->0] [0 0 0 0->0]
r 15.008242360 _7_ RTR  --- 5 DSR 32 [0 ffffffff 18 800] ------- [24:255 25:255 32 0] 1 [1 1] [0 1 0 0->0] [0 0 0 0->0]
r 15.008242360 _8_ RTR  --- 5 DSR 32 [0 ffffffff 18 800] ------- [24:255 25:255 32 0] 1 [1 1] [0 1 0 0->0] [0 0 0 0->0]
r 15.008242498 _10_ RTR  --- 5 DSR 32 [0 ffffffff 18 800] ------- [24:255 25:255 32 0] 1 [1 1] [0 1 0 0->0] [0 0 0 0->0]
r 15.008242498 _4_ RTR  --- 5 DSR 32 [0 ffffffff 18 800] ------- [24:255 25:255 32 0] 1 [1 1] [0 1 0 0->0] [0 0 0 0->0]
r 15.008242498 _5_ RTR  --- 5 DSR 32 [0 ffffffff 18 800] ------- [24:255 25:255 32 0] 1 [1 1] [0 1 0 0->0] [0 0 0 0->0]
r 15.008242498 _11_ RTR  --- 5 DSR 32 [0 ffffffff 18 800] ------- [24:255 25:255 32 0] 1 [1 1] [0 1 0 0->0] [0 0 0 0->0]
r 15.008242693 _20_ RTR  --- 5 DSR 32 [0 ffffffff 18 800] ------- [24:255 25:255 32 0] 1 [1 1] [0 1 0 0->0] [0 0 0 0->0]
r 15.008242693 _25_ RTR  --- 5 DSR 32 [0 ffffffff 18 800] ------- [24:255 25:255 32 0] 1 [1 1] [0 1 0 0->0] [0 0 0 0->0]
r 15.008242772 _13_ RTR  --- 5 DSR 32 [0 ffffffff 18 800] ------- [24:255 25:255 32 0] 1 [1 1] [0 1 0 0->0] [0 0 0 0->0]
r 15.008242772 _1_ RTR  --- 5 DSR 32 [0 ffffffff 18 800] ------- [24:255 25:255 32 0] 1 [1 1] [0 1 0 0->0] [0 0 0 0->0]
r 15.008242772 _23_ RTR  --- 5 DSR 32 [0 ffffffff 18 800] ------- [24:255 25:255 32 0] 1 [1 1] [0 1 0 0->0] [0 0 0 0->0]
r 15.008242772 _2_ RTR  --- 5 DSR 32 [0 ffffffff 18 800] ------- [24:255 25:255 32 0] 1 [1 1] [0 1 0 0->0] [0 0 0 0->0]
r 15.008242772 _14_ RTR  --- 5 DSR 32 [0 ffffffff 18 800] ------- [24:255 25:255 32 0] 1 [1 1] [0 1 0 0->0] [0 0 0 0->0]
s 15.008533240 _1_ RTR  --- 3 DSR 32 [0 0 0 0] ------- [1:255 21:255 32 0] 1 [1 1] [0 1 0 0->0] [0 0 0 0->0]
r 15.009489562 _3_ RTR  --- 1 DSR 32 [0 ffffffff 0 800] ------- [0:255 19:255 32 0] 1 [1 1] [0 1 0 0->0] [0 0 0 0->0]
r 15.009489895 _6_ RTR  --- 1 DSR 32 [0 ffffffff 0 800] ------- [0:255 19:255 32 0] 1 [1 1] [0 1 0 0->0] [0 0 0 0->0]
r 15.009489895 _1_ RTR  --- 1 DSR 32 [0 ffffffff 0 800] ------- [0:255 19:255 32 0] 1 [1 1] [0 1 0 0->0] [0 0 0 0->0]
r 15.009489974 _25_ RTR  --- 1 DSR 32 [0 ffffffff 0 800] ------- [0:255 19:255 32 0] 1 [1 1] [0 1 0 0->0] [0 0 0 0->0]
r 15.009489974 _4_ RTR  --- 1 DSR 32 [0 ffffffff 0 800] ------- [0:255 19:255 32 0] 1 [1 1] [0 1 0 0->0] [0 0 0 0->0]
r 15.010352229 _4_ RTR  --- 3 DSR 32 [0 ffffffff 1 800] ------- [1:255 21:255 32 0] 1 [1 1] [0 1 0 0->0] [0 0 0 0->0]
r 15.010352562 _0_ RTR  --- 3 DSR 32 [0 ffffffff 1 800] ------- [1:255 21:255 32 0] 1 [1 1] [0 1 0 0->0] [0 0 0 0->0]
r 15.010352562 _7_ RTR  --- 3 DSR 32 [0 ffffffff 1 800] ------- [1:255 21:255 32 0] 1 [1 1] [0 1 0 0->0] [0 0 0 0->0]
r 15.010352562 _2_ RTR  --- 3 DSR 32 [0 ffffffff 1 800] ------- [1:255 21:255 32 0] 1 [1 1] [0 1 0 0->0] [0 0 0 0->0]
r 15.010352641 _25_ RTR  --- 3 DSR 32 [0 ffffffff 1 800] ------- [1:255 21:255 32 0] 1 [1 1] [0 1 0 0->0] [0 0 0 0->0]
r 15.010352641 _3_ RTR  --- 3 DSR 32 [0 ffffffff 1 800] ------- [1:255 21:255 32 0] 1 [1 1] [0 1 0 0->0] [0 0 0 0->0]
r 15.010352641 _24_ RTR  --- 3 DSR 32 [0 ffffffff 1 800] ------- [1:255 21:255 32 0] 1 [1 1] [0 1 0 0->0] [0 0 0 0->0]
r 15.010352641 _5_ RTR  --- 3 DSR 32 [0 ffffffff 1 800] ------- [1:255 21:255 32 0] 1 [1 1] [0 1 0 0->0] [0 0 0 0->0]
s 15.015955907 _25_ RTR  --- 7 DSR 44 [0 0 0 0] ------- [25:255 24:255 254 24] 2 [0 1] [1 1 2 24->25] [0 0 0 0->0]
r 15.017621907 _24_ RTR  --- 7 DSR 44 [13a 18 19 800] ------- [25:255 24:255 254 24] 2 [0 1] [1 1 2 24->25] [0 0 0 0->0]
SFESTs 15.017621907 _24_ 4 [24 -> 25] 1(1) to 25 [24 |25 ]
s 15.017621907 _24_ RTR  --- 4 cbr 548 [0 0 0 0] ------- [24:0 25:0 32 25] [0] 0 0
r 15.023463907 _25_ RTR  --- 4 cbr 548 [13a 19 18 800] ------- [24:0 25:0 32 25] [0] 1 0
r 15.023463907 _25_ AGT  --- 4 cbr 512 [13a 19 18 800] ------- [24:0 25:0 32 25] [0] 1 0
s 15.053893613 _1_ RTR  --- 9 DSR 32 [0 0 0 0] ------- [1:255 21:255 32 0] 1 [1 2] [0 2 0 0->16] [0 0 0 0->0]
r 15.054905947 _4_ RTR  --- 9 DSR 32 [0 ffffffff 1 800] ------- [1:255 21:255 32 0] 1 [1 2] [0 2 0 0->16] [0 0 0 0->0]
r 15.054906280 _0_ RTR  --- 9 DSR 32 [0 ffffffff 1 800] ------- [1:255 21:255 32 0] 1 [1 2] [0 2 0 0->16] [0 0 0 0->0]
r 15.054906280 _7_ RTR  --- 9 DSR 32 [0 ffffffff 1 800] ------- [1:255 21:255 32 0] 1 [1 2] [0 2 0 0->16] [0 0 0 0->0]
r 15.054906280 _2_ RTR  --- 9 DSR 32 [0 ffffffff 1 800] ------- [1:255 21:255 32 0] 1 [1 2] [0 2 0 0->16] [0 0 0 0->0]
r 15.054906359 _25_ RTR  --- 9 DSR 32 [0 ffffffff 1 800] ------- [1:255 21:255 32 0] 1 [1 2] [0 2 0 0->16] [0 0 0 0->0]
r 15.054906359 _3_ RTR  --- 9 DSR 32 [0 ffffffff 1 800] ------- [1:255 21:255 32 0] 1 [1 2] [0 2 0 0->16] [0 0 0 0->0]
r 15.054906359 _24_ RTR  --- 9 DSR 32 [0 ffffffff 1 800] ------- [1:255 21:255 32 0] 1 [1 2] [0 2 0 0->16] [0 0 0 0->0]
r 15.054906359 _5_ RTR  --- 9 DSR 32 [0 ffffffff 1 800] ------- [1:255 21:255 32 0] 1 [1 2] [0 2 0 0->16] [0 0 0 0->0]
f 15.055200273 _2_ RTR  --- 9 DSR 48 [0 ffffffff 1 800] ------- [1:255 21:255 32 0] 2 [1 2] [0 2 0 0->16] [0 0 0 0->0]
f 15.055290711 _4_ RTR  --- 9 DSR 48 [0 ffffffff 1 800] ------- [1:255 21:255 32 0] 2 [1 2] [0 2 0 0->16] [0 0 0 0->0]
r 15.056180606 _5_ RTR  --- 9 DSR 48 [0 ffffffff 2 800] ------- [1:255 21:255 32 0] 2 [1 2] [0 2 0 0->16] [0 0 0 0->0]
r 15.056180939 _1_ RTR  --- 9 DSR 48 [0 ffffffff 2 800] ------- [1:255 21:255 32 0] 2 [1 2] [0 2 0 0->16] [0 0 0 0->0]
r 15.056180939 _8_ RTR  --- 9 DSR 48 [0 ffffffff 2 800] ------- [1:255 21:255 32 0] 2 [1 2] [0 2 0 0->16] [0 0 0 0->0]
r 15.056181018 _24_ RTR  --- 9 DSR 48 [0 ffffffff 2 800] ------- [1:255 21:255 32 0] 2 [1 2] [0 2 0 0->16] [0 0 0 0->0]
r 15.056181018 _4_ RTR  --- 9 DSR 48 [0 ffffffff 2 800] ------- [1:255 21:255 32 0] 2 [1 2] [0 2 0 0->16] [0 0 0 0->0]
f 15.056516376 _8_ RTR  --- 9 DSR 68 [0 ffffffff 2 800] ------- [1:255 21:255 32 0] 3 [1 2] [0 2 0 0->16] [0 0 0 0->0]
f 15.057131199 _24_ RTR  --- 9 DSR 48 [0 ffffffff 1 800] ------- [1:255 21:255 32 0] 2 [1 2] [0 2 0 0->16] [0 0 0 0->0]
r 15.057231351 _1_ RTR  --- 9 DSR 48 [0 ffffffff 4 800] ------- [1:255 21:255 32 0] 2 [1 2] [0 2 0 0->16] [0 0 0 0->0]
r 15.057231351 _7_ RTR  --- 9 DSR 48 [0 ffffffff 4 800] ------- [1:255 21:255 32 0] 2 [1 2] [0 2 0 0->16] [0 0 0 0->0]
r 15.057231490 _25_ RTR  --- 9 DSR 48 [0 ffffffff 4 800] ------- [1:255 21:255 32 0] 2 [1 2] [0 2 0 0->16] [0 0 0 0->0]
r 15.057231490 _24_ RTR  --- 9 DSR 48 [0 ffffffff 4 800] ------- [1:255 21:255 32 0] 2 [1 2] [0 2 0 0->16] [0 0 0 0->0]
r 15.057231685 _3_ RTR  --- 9 DSR 48 [0 ffffffff 4 800] ------- [1:255 21:255 32 0] 2 [1 2] [0 2 0 0->16] [0 0 0 0->0]
r 15.057231685 _10_ RTR  --- 9 DSR 48 [0 ffffffff 4 800] ------- [1:255 21:255 32 0] 2 [1 2] [0 2 0 0->16] [0 0 0 0->0]
r 15.057231685 _5_ RTR  --- 9 DSR 48 [0 ffffffff 4 800] ------- [1:255 21:255 32 0] 2 [1 2] [0 2 0 0->16] [0 0 0 0->0]
r 15.057231763 _23_ RTR  --- 9 DSR 48 [0 ffffffff 4 800] ------- [1:255 21:255 32 0] 2 [1 2] [0 2 0 0->16] [0 0 0 0->0]
r 15.057231763 _6_ RTR  --- 9 DSR 48 [0 ffffffff 4 800] ------- [1:255 21:255 32 0] 2 [1 2] [0 2 0 0->16] [0 0 0 0->0]
r 15.057231763 _0_ RTR  --- 9 DSR 48 [0 ffffffff 4 800] ------- [1:255 21:255 32 0] 2 [1 2] [0 2 0 0->16] [0 0 0 0->0]
r 15.057231763 _22_ RTR  --- 9 DSR 48 [0 ffffffff 4 800] ------- [1:255 21:255 32 0] 2 [1 2] [0 2 0 0->16] [0 0 0 0->0]
r 15.057231763 _2_ RTR  --- 9 DSR 48 [0 ffffffff 4 800] ------- [1:255 21:255 32 0] 2 [1 2] [0 2 0 0->16] [0 0 0 0->0]
r 15.057231763 _8_ RTR  --- 9 DSR 48 [0 ffffffff 4 800] ------- [1:255 21:255 32 0] 2 [1 2] [0 2 0 0->16] [0 0 0 0->0]
f 15.058142889 _3_ RTR  --- 9 DSR 48 [0 ffffffff 1 800] ------- [1:255 21:255 32 0] 2 [1 2] [0 2 0 0->16] [0 0 0 0->0]
r 15.058581823 _22_ RTR  --- 9 DSR 48 [0 ffffffff 18 800] ------- [1:255 21:255 32 0] 2 [1 2] [0 2 0 0->16] [0 0 0 0->0]
r 15.058581823 _7_ RTR  --- 9 DSR 48 [0 ffffffff 18 800] ------- [1:255 21:255 32 0] 2 [1 2] [0 2 0 0->16] [0 0 0 0->0]
r 15.058581823 _8_ RTR  --- 9 DSR 48 [0 ffffffff 18 800] ------- [1:255 21:255 32 0] 2 [1 2] [0 2 0 0->16] [0 0 0 0->0]
r 15.058581961 _10_ RTR  --- 9 DSR 48 [0 ffffffff 18 800] ------- [1:255 21:255 32 0] 2 [1 2] [0 2 0 0->16] [0 0 0 0->0]
r 15.058581961 _4_ RTR  --- 9 DSR 48 [0 ffffffff 18 800] ------- [1:255 21:255 32 0] 2 [1 2] [0 2 0 0->16] [0 0 0 0->0]
r 15.058581961 _5_ RTR  --- 9 DSR 48 [0 ffffffff 18 800] ------- [1:255 21:255 32 0] 2 [1 2] [0 2 0 0->16] [0 0 0 0->0]
r 15.058581961 _11_ RTR  --- 9 DSR 48 [0 ffffffff 18 800] ------- [1:255 21:255 32 0] 2 [1 2] [0 2 0 0->16] [0 0 0 0->0]
r 15.058582156 _20_ RTR  --- 9 DSR 48 [0 ffffffff 18 800] ------- [1:255 21:255 32 0] 2 [1 2] [0 2 0 0->16] [0 0 0 0->0]
r 15.058582156 _25_ RTR  --- 9 DSR 48 [0 ffffffff 18 800] ------- [1:255 21:255 32 0] 2 [1 2] [0 2 0 0->16] [0 0 0 0->0]
r 15.058582235 _13_ RTR  --- 9 DSR 48 [0 ffffffff 18 800] ------- [1:255 21:255 32 0] 2 [1 2] [0 2 0 0->16] [0 0 0 0->0]
r 15.058582235 _1_ RTR  --- 9 DSR 48 [0 ffffffff 18 800] ------- [1:255 21:255 32 0] 2 [1 2] [0 2 0 0->16] [0 0 0 0->0]
r 15.058582235 _23_ RTR  --- 9 DSR 48 [0 ffffffff 18 800] ------- [1:255 21:255 32 0] 2 [1 2] [0 2 0 0->16] [0 0 0 0->0]
r 15.058582235 _2_ RTR  --- 9 DSR 48 [0 ffffffff 18 800] ------- [1:255 21:255 32 0] 2 [1 2] [0 2 0 0->16] [0 0 0 0->0]
r 15.058582235 _14_ RTR  --- 9 DSR 48 [0 ffffffff 18 800] ------- [1:255 21:255 32 0] 2 [1 2] [0 2 0 0->16] [0 0 0 0->0]
f 15.059113394 _0_ RTR  --- 9 DSR 48 [0 ffffffff 1 800] ------- [1:255 21:255 32 0] 2 [1 2] [0 2 0 0->16] [0 0 0 0->0]
r 15.059632156 _5_ RTR  --- 9 DSR 68 [0 ffffffff 8 800] ------- [1:255 21:255 32 0] 3 [1 2] [0 2 0 0->16] [0 0 0 0->0]
r 15.059632156 _24_ RTR  --- 9 DSR 68 [0 ffffffff 8 800] ------- [1:255 21:255 32 0] 3 [1 2] [0 2 0 0->16] [0 0 0 0->0]
r 15.059632156 _11_ RTR  --- 9 DSR 68 [0 ffffffff 8 800] ------- [1:255 21:255 32 0] 3 [1 2] [0 2 0 0->16] [0 0 0 0->0]
r 15.059632294 _22_ RTR  --- 9 DSR 68 [0 ffffffff 8 800] ------- [1:255 21:255 32 0] 3 [1 2] [0 2 0 0->16] [0 0 0 0->0]
r 15.059632490 _2_ RTR  --- 9 DSR 68 [0 ffffffff 8 800] ------- [1:255 21:255 32 0] 3 [1 2] [0 2 0 0->16] [0 0 0 0->0]
r 15.059632490 _7_ RTR  --- 9 DSR 68 [0 ffffffff 8 800] ------- [1:255 21:255 32 0] 3 [1 2] [0 2 0 0->16] [0 0 0 0->0]
r 15.059632490 _14_ RTR  --- 9 DSR 68 [0 ffffffff 8 800] ------- [1:255 21:255 32 0] 3 [1 2] [0 2 0 0->16] [0 0 0 0->0]
r 15.059632568 _20_ RTR  --- 9 DSR 68 [0 ffffffff 8 800] ------- [1:255 21:255 32 0] 3 [1 2] [0 2 0 0->16] [0 0 0 0->0]
r 15.059632568 _10_ RTR  --- 9 DSR 68 [0 ffffffff 8 800] ------- [1:255 21:255 32 0] 3 [1 2] [0 2 0 0->16] [0 0 0 0->0]
r 15.059632568 _4_ RTR  --- 9 DSR 68 [0 ffffffff 8 800] ------- [1:255 21:255 32 0] 3 [1 2] [0 2 0 0->16] [0 0 0 0->0]
f 15.059848759 _23_ RTR  --- 9 DSR 68 [0 ffffffff 4 800] ------- [1:255 21:255 32 0] 3 [1 2] [0 2 0 0->16] [0 0 0 0->0]
f 15.060545743 _22_ RTR  --- 9 DSR 68 [0 ffffffff 4 800] ------- [1:255 21:255 32 0] 3 [1 2] [0 2 0 0->16] [0 0 0 0->0]
f 15.060912188 _7_ RTR  --- 9 DSR 48 [0 ffffffff 1 800] ------- [1:255 21:255 32 0] 2 [1 2] [0 2 0 0->16] [0 0 0 0->0]
r 15.061007210 _21_ RTR  --- 9 DSR 68 [0 ffffffff 17 800] ------- [1:255 21:255 32 0] 3 [1 2] [0 2 0 0->16] [0 0 0 0->0]
r 15.061007210 _9_ RTR  --- 9 DSR 68 [0 ffffffff 17 800] ------- [1:255 21:255 32 0] 3 [1 2] [0 2 0 0->16] [0 0 0 0->0]
r 15.061007210 _25_ RTR  --- 9 DSR 68 [0 ffffffff 17 800] ------- [1:255 21:255 32 0] 3 [1 2] [0 2 0 0->16] [0 0 0 0->0]
r 15.061007210 _10_ RTR  --- 9 DSR 68 [0 ffffffff 17 800] ------- [1:255 21:255 32 0] 3 [1 2] [0 2 0 0->16] [0 0 0 0->0]
r 15.061007348 _12_ RTR  --- 9 DSR 68 [0 ffffffff 17 800] ------- [1:255 21:255 32 0] 3 [1 2] [0 2 0 0->16] [0 0 0 0->0]
r 15.061007348 _6_ RTR  --- 9 DSR 68 [0 ffffffff 17 800] ------- [1:255 21:255 32 0] 3 [1 2] [0 2 0 0->16] [0 0 0 0->0]
r 15.061007348 _7_ RTR  --- 9 DSR 68 [0 ffffffff 17 800] ------- [1:255 21:255 32 0] 3 [1 2] [0 2 0 0->16] [0 0 0 0->0]
r 15.061007348 _13_ RTR  --- 9 DSR 68 [0 ffffffff 17 800] ------- [1:255 21:255 32 0] 3 [1 2] [0 2 0 0->16] [0 0 0 0->0]
r 15.061007544 _19_ RTR  --- 9 DSR 68 [0 ffffffff 17 800] ------- [1:255 21:255 32 0] 3 [1 2] [0 2 0 0->16] [0 0 0 0->0]
r 15.061007544 _22_ RTR  --- 9 DSR 68 [0 ffffffff 17 800] ------- [1:255 21:255 32 0] 3 [1 2] [0 2 0 0->16] [0 0 0 0->0]
r 15.061007622 _15_ RTR  --- 9 DSR 68 [0 ffffffff 17 800] ------- [1:255 21:255 32 0] 3 [1 2] [0 2 0 0->16] [0 0 0 0->0]
r 15.061007622 _3_ RTR  --- 9 DSR 68 [0 ffffffff 17 800] ------- [1:255 21:255 32 0] 3 [1 2] [0 2 0 0->16] [0 0 0 0->0]
r 15.061007622 _4_ RTR  --- 9 DSR 68 [0 ffffffff 17 800] ------- [1:255 21:255 32 0] 3 [1 2] [0 2 0 0->16] [0 0 0 0->0]
r 15.061007622 _16_ RTR  --- 9 DSR 68 [0 ffffffff 17 800] ------- [1:255 21:255 32 0] 3 [1 2] [0 2 0 0->16] [0 0 0 0->0]
r 15.061007622 _20_ RTR  --- 9 DSR 68 [0 ffffffff 17 800] ------- [1:255 21:255 32 0] 3 [1 2] [0 2 0 0->16] [0 0 0 0->0]
r 15.061007622 _24_ RTR  --- 9 DSR 68 [0 ffffffff 17 800] ------- [1:255 21:255 32 0] 3 [1 2] [0 2 0 0->16] [0 0 0 0->0]
f 15.061145688 _15_ RTR  --- 9 DSR 92 [0 ffffffff 17 800] ------- [1:255 21:255 32 0] 4 [1 2] [0 2 0 0->16] [0 0 0 0->0]
f 15.061518066 _12_ RTR  --- 9 DSR 92 [0 ffffffff 17 800] ------- [1:255 21:255 32 0] 4 [1 2] [0 2 0 0->16] [0 0 0 0->0]
s 15.061703061 _21_ RTR  --- 11 DSR 60 [0 0 0 0] ------- [21:255 1:255 254 23] 4 [0 2] [1 2 4 1->21] [0 0 0 0->0]
r 15.062057877 _20_ RTR  --- 9 DSR 68 [0 ffffffff 16 800] ------- [1:255 21:255 32 0] 3 [1 2] [0 2 0 0->16] [0 0 0 0->0]
r 15.062057877 _10_ RTR  --- 9 DSR 68 [0 ffffffff 16 800] ------- [1:255 21:255 32 0] 3 [1 2] [0 2 0 0->16] [0 0 0 0->0]
r 15.062057877 _24_ RTR  --- 9 DSR 68 [0 ffffffff 16 800] ------- [1:255 21:255 32 0] 3 [1 2] [0 2 0 0->16] [0 0 0 0->0]
r 15.062057877 _11_ RTR  --- 9 DSR 68 [0 ffffffff 16 800] ------- [1:255 21:255 32 0] 3 [1 2] [0 2 0 0->16] [0 0 0 0->0]
r 15.062058015 _13_ RTR  --- 9 DSR 68 [0 ffffffff 16 800] ------- [1:255 21:255 32 0] 3 [1 2] [0 2 0 0->16] [0 0 0 0->0]
r 15.062058015 _7_ RTR  --- 9 DSR 68 [0 ffffffff 16 800] ------- [1:255 21:255 32 0] 3 [1 2] [0 2 0 0->16] [0 0 0 0->0]
r 15.062058015 _8_ RTR  --- 9 DSR 68 [0 ffffffff 16 800] ------- [1:255 21:255 32 0] 3 [1 2] [0 2 0 0->16] [0 0 0 0->0]
r 15.062058015 _14_ RTR  --- 9 DSR 68 [0 ffffffff 16 800] ------- [1:255 21:255 32 0] 3 [1 2] [0 2 0 0->16] [0 0 0 0->0]
r 15.062058210 _18_ RTR  --- 9 DSR 68 [0 ffffffff 16 800] ------- [1:255 21:255 32 0] 3 [1 2] [0 2 0 0->16] [0 0 0 0->0]
r 15.062058210 _23_ RTR  --- 9 DSR 68 [0 ffffffff 16 800] ------- [1:255 21:255 32 0] 3 [1 2] [0 2 0 0->16] [0 0 0 0->0]
r 15.062058289 _16_ RTR  --- 9 DSR 68 [0 ffffffff 16 800] ------- [1:255 21:255 32 0] 3 [1 2] [0 2 0 0->16] [0 0 0 0->0]
r 15.062058289 _4_ RTR  --- 9 DSR 68 [0 ffffffff 16 800] ------- [1:255 21:255 32 0] 3 [1 2] [0 2 0 0->16] [0 0 0 0->0]
r 15.062058289 _25_ RTR  --- 9 DSR 68 [0 ffffffff 16 800] ------- [1:255 21:255 32 0] 3 [1 2] [0 2 0 0->16] [0 0 0 0->0]
r 15.062058289 _21_ RTR  --- 9 DSR 68 [0 ffffffff 16 800] ------- [1:255 21:255 32 0] 3 [1 2] [0 2 0 0->16] [0 0 0 0->0]
r 15.062058289 _5_ RTR  --- 9 DSR 68 [0 ffffffff 16 800] ------- [1:255 21:255 32 0] 3 [1 2] [0 2 0 0->16] [0 0 0 0->0]
r 15.062058289 _17_ RTR  --- 9 DSR 68 [0 ffffffff 16 800] ------- [1:255 21:255 32 0] 3 [1 2] [0 2 0 0->16] [0 0 0 0->0]
f 15.062679459 _19_ RTR  --- 9 DSR 92 [0 ffffffff 17 800] ------- [1:255 21:255 32 0] 4 [1 2] [0 2 0 0->16] [0 0 0 0->0]
f 15.063006433 _25_ RTR  --- 9 DSR 48 [0 ffffffff 1 800] ------- [1:255 21:255 32 0] 2 [1 2] [0 2 0 0->16] [0 0 0 0->0]
f 15.063561031 _10_ RTR  --- 9 DSR 68 [0 ffffffff 4 800] ------- [1:255 21:255 32 0] 3 [1 2] [0 2 0 0->16] [0 0 0 0->0]
f 15.064048487 _5_ RTR  --- 9 DSR 48 [0 ffffffff 1 800] ------- [1:255 21:255 32 0] 2 [1 2] [0 2 0 0->16] [0 0 0 0->0]
r 15.064141289 _23_ RTR  --- 11 DSR 60 [13a 17 15 800] ------- [21:255 1:255 254 23] 4 [0 2] [1 2 4 1->21] [0 0 0 0->0]
f 15.064141289 _23_ RTR  --- 11 DSR 60 [13a 17 15 800] ------- [21:255 1:255 253 4] 4 [0 2] [1 2 4 1->21] [0 0 0 0->0]
f 15.064243490 _13_ RTR  --- 9 DSR 68 [0 ffffffff 18 800] ------- [1:255 21:255 32 0] 3 [1 2] [0 2 0 0->16] [0 0 0 0->0]
f 15.064304215 _11_ RTR  --- 9 DSR 68 [0 ffffffff 18 800] ------- [1:255 21:255 32 0] 3 [1 2] [0 2 0 0->16] [0 0 0 0->0]
f 15.064690868 _6_ RTR  --- 9 DSR 68 [0 ffffffff 4 800] ------- [1:255 21:255 32 0] 3 [1 2] [0 2 0 0->16] [0 0 0 0->0]
f 15.065012503 _18_ RTR  --- 9 DSR 92 [0 ffffffff 16 800] ------- [1:255 21:255 32 0] 4 [1 2] [0 2 0 0->16] [0 0 0 0->0]
r 15.065406094 _4_ RTR  --- 9 DSR 48 [0 ffffffff 7 800] ------- [1:255 21:255 32 0] 2 [1 2] [0 2 0 0->16] [0 0 0 0->0]
r 15.065406094 _25_ RTR  --- 9 DSR 48 [0 ffffffff 7 800] ------- [1:255 21:255 32 0] 2 [1 2] [0 2 0 0->16] [0 0 0 0->0]
r 15.065406094 _10_ RTR  --- 9 DSR 48 [0 ffffffff 7 800] ------- [1:255 21:255 32 0] 2 [1 2] [0 2 0 0->16] [0 0 0 0->0]
r 15.065406094 _24_ RTR  --- 9 DSR 48 [0 ffffffff 7 800] ------- [1:255 21:255 32 0] 2 [1 2] [0 2 0 0->16] [0 0 0 0->0]
r 15.065406232 _23_ RTR  --- 9 DSR 48 [0 ffffffff 7 800] ------- [1:255 21:255 32 0] 2 [1 2] [0 2 0 0->16] [0 0 0 0->0]
r 15.065406232 _22_ RTR  --- 9 DSR 48 [0 ffffffff 7 800] ------- [1:255 21:255 32 0] 2 [1 2] [0 2 0 0->16] [0 0 0 0->0]
r 15.065406427 _1_ RTR  --- 9 DSR 48 [0 ffffffff 7 800] ------- [1:255 21:255 32 0] 2 [1 2] [0 2 0 0->16] [0 0 0 0->0]
r 15.065406427 _6_ RTR  --- 9 DSR 48 [0 ffffffff 7 800] ------- [1:255 21:255 32 0] 2 [1 2] [0 2 0 0->16] [0 0 0 0->0]
r 15.065406427 _13_ RTR  --- 9 DSR 48 [0 ffffffff 7 800] ------- [1:255 21:255 32 0] 2 [1 2] [0 2 0 0->16] [0 0 0 0->0]
r 15.065406427 _8_ RTR  --- 9 DSR 48 [0 ffffffff 7 800] ------- [1:255 21:255 32 0] 2 [1 2] [0 2 0 0->16] [0 0 0 0->0]
r 15.065406506 _21_ RTR  --- 9 DSR 48 [0 ffffffff 7 800] ------- [1:255 21:255 32 0] 2 [1 2] [0 2 0 0->16] [0 0 0 0->0]
r 15.065406506 _9_ RTR  --- 9 DSR 48 [0 ffffffff 7 800] ------- [1:255 21:255 32 0] 2 [1 2] [0 2 0 0->16] [0 0 0 0->0]
r 15.065406506 _3_ RTR  --- 9 DSR 48 [0 ffffffff 7 800] ------- [1:255 21:255 32 0] 2 [1 2] [0 2 0 0->16] [0 0 0 0->0]
r 15.065406506 _20_ RTR  --- 9 DSR 48 [0 ffffffff 7 800] ------- [1:255 21:255 32 0] 2 [1 2] [0 2 0 0->16] [0 0 0 0->0]
r 15.065406506 _5_ RTR  --- 9 DSR 48 [0 ffffffff 7 800] ------- [1:255 21:255 32 0] 2 [1 2] [0 2 0 0->16] [0 0 0 0->0]
r 15.065406506 _11_ RTR  --- 9 DSR 48 [0 ffffffff 7 800] ------- [1:255 21:255 32 0] 2 [1 2] [0 2 0 0->16] [0 0 0 0->0]
s 15.065551718 _21_ RTR  --- 12 DSR 60 [0 0 0 0] ------- [21:255 1:255 254 22] 4 [0 2] [1 2 4 1->21] [0 0 0 0->0]
r 15.066456760 _10_ RTR  --- 9 DSR 68 [0 ffffffff d 800] ------- [1:255 21:255 32 0] 3 [1 2] [0 2 0 0->16] [0 0 0 0->0]
r 15.066456760 _21_ RTR  --- 9 DSR 68 [0 ffffffff d 800] ------- [1:255 21:255 32 0] 3 [1 2] [0 2 0 0->16] [0 0 0 0->0]
r 15.066456760 _16_ RTR  --- 9 DSR 68 [0 ffffffff d 800] ------- [1:255 21:255 32 0] 3 [1 2] [0 2 0 0->16] [0 0 0 0->0]
r 15.066456760 _20_ RTR  --- 9 DSR 68 [0 ffffffff d 800] ------- [1:255 21:255 32 0] 3 [1 2] [0 2 0 0->16] [0 0 0 0->0]
r 15.066456898 _23_ RTR  --- 9 DSR 68 [0 ffffffff d 800] ------- [1:255 21:255 32 0] 3 [1 2] [0 2 0 0->16] [0 0 0 0->0]
r 15.066456898 _19_ RTR  --- 9 DSR 68 [0 ffffffff d 800] ------- [1:255 21:255 32 0] 3 [1 2] [0 2 0 0->16] [0 0 0 0->0]
r 15.066456898 _18_ RTR  --- 9 DSR 68 [0 ffffffff d 800] ------- [1:255 21:255 32 0] 3 [1 2] [0 2 0 0->16] [0 0 0 0->0]
r 15.066456898 _22_ RTR  --- 9 DSR 68 [0 ffffffff d 800] ------- [1:255 21:255 32 0] 3 [1 2] [0 2 0 0->16] [0 0 0 0->0]
r 15.066457094 _7_ RTR  --- 9 DSR 68 [0 ffffffff d 800] ------- [1:255 21:255 32 0] 3 [1 2] [0 2 0 0->16] [0 0 0 0->0]
r 15.066457094 _12_ RTR  --- 9 DSR 68 [0 ffffffff d 800] ------- [1:255 21:255 32 0] 3 [1 2] [0 2 0 0->16] [0 0 0 0->0]
r 15.066457094 _14_ RTR  --- 9 DSR 68 [0 ffffffff d 800] ------- [1:255 21:255 32 0] 3 [1 2] [0 2 0 0->16] [0 0 0 0->0]
r 15.066457172 _25_ RTR  --- 9 DSR 68 [0 ffffffff d 800] ------- [1:255 21:255 32 0] 3 [1 2] [0 2 0 0->16] [0 0 0 0->0]
r 15.066457172 _15_ RTR  --- 9 DSR 68 [0 ffffffff d 800] ------- [1:255 21:255 32 0] 3 [1 2] [0 2 0 0->16] [0 0 0 0->0]
r 15.066457172 _9_ RTR  --- 9 DSR 68 [0 ffffffff d 800] ------- [1:255 21:255 32 0] 3 [1 2] [0 2 0 0->16] [0 0 0 0->0]
r 15.066457172 _24_ RTR  --- 9 DSR 68 [0 ffffffff d 800] ------- [1:255 21:255 32 0] 3 [1 2] [0 2 0 0->16] [0 0 0 0->0]
r 15.066457172 _11_ RTR  --- 9 DSR 68 [0 ffffffff d 800] ------- [1:255 21:255 32 0] 3 [1 2] [0 2 0 0->16] [0 0 0 0->0]
r 15.066457172 _17_ RTR  --- 9 DSR 68 [0 ffffffff d 800] ------- [1:255 21:255 32 0] 3 [1 2] [0 2 0 0->16] [0 0 0 0->0]
s 15.066765754 _0_ RTR  --- 10 DSR 32 [0 0 0 0] ------- [0:255 19:255 32 0] 1 [1 2] [0 2 0 0->16] [0 0 0 0->0]
r 15.067699506 _12_ RTR  --- 9 DSR 92 [0 ffffffff f 800] ------- [1:255 21:255 32 0] 4 [1 2] [0 2 0 0->16] [0 0 0 0->0]
r 15.067699506 _19_ RTR  --- 9 DSR 92 [0 ffffffff f 800] ------- [1:255 21:255 32 0] 4 [1 2] [0 2 0 0->16] [0 0 0 0->0]
r 15.067699644 _21_ RTR  --- 9 DSR 92 [0 ffffffff f 800] ------- [1:255 21:255 32 0] 4 [1 2] [0 2 0 0->16] [0 0 0 0->0]
r 15.067699839 _9_ RTR  --- 9 DSR 92 [0 ffffffff f 800] ------- [1:255 21:255 32 0] 4 [1 2] [0 2 0 0->16] [0 0 0 0->0]
r 15.067699839 _16_ RTR  --- 9 DSR 92 [0 ffffffff f 800] ------- [1:255 21:255 32 0] 4 [1 2] [0 2 0 0->16] [0 0 0 0->0]
r 15.067831962 _2_ RTR  --- 9 DSR 48 [0 ffffffff 5 800] ------- [1:255 21:255 32 0] 2 [1 2] [0 2 0 0->16] [0 0 0 0->0]
f 15.068061592 _16_ RTR  --- 9 DSR 92 [0 ffffffff 17 800] ------- [1:255 21:255 32 0] 4 [1 2] [0 2 0 0->16] [0 0 0 0->0]
f 15.068395937 _20_ RTR  --- 9 DSR 68 [0 ffffffff 18 800] ------- [1:255 21:255 32 0] 3 [1 2] [0 2 0 0->16] [0 0 0 0->0]
f 15.068573220 _14_ RTR  --- 9 DSR 68 [0 ffffffff 18 800] ------- [1:255 21:255 32 0] 3 [1 2] [0 2 0 0->16] [0 0 0 0->0]
f 15.068861232 _17_ RTR  --- 9 DSR 92 [0 ffffffff 16 800] ------- [1:255 21:255 32 0] 4 [1 2] [0 2 0 0->16] [0 0 0 0->0]
r 15.069246629 _8_ RTR  --- 9 DSR 68 [0 ffffffff b 800] ------- [1:255 21:255 32 0] 3 [1 2] [0 2 0 0->16] [0 0 0 0->0]
r 15.069246629 _22_ RTR  --- 9 DSR 68 [0 ffffffff b 800] ------- [1:255 21:255 32 0] 3 [1 2] [0 2 0 0->16] [0 0 0 0->0]
r 15.069246629 _14_ RTR  --- 9 DSR 68 [0 ffffffff b 800] ------- [1:255 21:255 32 0] 3 [1 2] [0 2 0 0->16] [0 0 0 0->0]
r 15.069246767 _24_ RTR  --- 9 DSR 68 [0 ffffffff b 800] ------- [1:255 21:255 32 0] 3 [1 2] [0 2 0 0->16] [0 0 0 0->0]
r 15.069246767 _20_ RTR  --- 9 DSR 68 [0 ffffffff b 800] ------- [1:255 21:255 32 0] 3 [1 2] [0 2 0 0->16] [0 0 0 0->0]
r 15.069246962 _5_ RTR  --- 9 DSR 68 [0 ffffffff b 800] ------- [1:255 21:255 32 0] 3 [1 2] [0 2 0 0->16] [0 0 0 0->0]
r 15.069246962 _10_ RTR  --- 9 DSR 68 [0 ffffffff b 800] ------- [1:255 21:255 32 0] 3 [1 2] [0 2 0 0->16] [0 0 0 0->0]
r 15.069246962 _17_ RTR  --- 9 DSR 68 [0 ffffffff b 800] ------- [1:255 21:255 32 0] 3 [1 2] [0 2 0 0->16] [0 0 0 0->0]
r 15.069247041 _18_ RTR  --- 9 DSR 68 [0 ffffffff b 800] ------- [1:255 21:255 32 0] 3 [1 2] [0 2 0 0->16] [0 0 0 0->0]
r 15.069247041 _13_ RTR  --- 9 DSR 68 [0 ffffffff b 800] ------- [1:255 21:255 32 0] 3 [1 2] [0 2 0 0->16] [0 0 0 0->0]
r 15.069247041 _7_ RTR  --- 9 DSR 68 [0 ffffffff b 800] ------- [1:255 21:255 32 0] 3 [1 2] [0 2 0 0->16] [0 0 0 0->0]
f 15.069374858 _9_ RTR  --- 9 DSR 92 [0 ffffffff 17 800] ------- [1:255 21:255 32 0] 4 [1 2] [0 2 0 0->16] [0 0 0 0->0]
r 15.070277296 _7_ RTR  --- 9 DSR 68 [0 ffffffff a 800] ------- [1:255 21:255 32 0] 3 [1 2] [0 2 0 0->16] [0 0 0 0->0]
r 15.070277296 _23_ RTR  --- 9 DSR 68 [0 ffffffff a 800] ------- [1:255 21:255 32 0] 3 [1 2] [0 2 0 0->16] [0 0 0 0->0]
r 15.070277296 _13_ RTR  --- 9 DSR 68 [0 ffffffff a 800] ------- [1:255 21:255 32 0] 3 [1 2] [0 2 0 0->16] [0 0 0 0->0]
r 15.070277296 _22_ RTR  --- 9 DSR 68 [0 ffffffff a 800] ------- [1:255 21:255 32 0] 3 [1 2] [0 2 0 0->16] [0 0 0 0->0]
r 15.070277434 _25_ RTR  --- 9 DSR 68 [0 ffffffff a 800] ------- [1:255 21:255 32 0] 3 [1 2] [0 2 0 0->16] [0 0 0 0->0]
r 15.070277434 _21_ RTR  --- 9 DSR 68 [0 ffffffff a 800] ------- [1:255 21:255 32 0] 3 [1 2] [0 2 0 0->16] [0 0 0 0->0]
r 15.070277434 _20_ RTR  --- 9 DSR 68 [0 ffffffff a 800] ------- [1:255 21:255 32 0] 3 [1 2] [0 2 0 0->16] [0 0 0 0->0]
r 15.070277434 _24_ RTR  --- 9 DSR 68 [0 ffffffff a 800] ------- [1:255 21:255 32 0] 3 [1 2] [0 2 0 0->16] [0 0 0 0->0]
r 15.070277629 _4_ RTR  --- 9 DSR 68 [0 ffffffff a 800] ------- [1:255 21:255 32 0] 3 [1 2] [0 2 0 0->16] [0 0 0 0->0]
r 15.070277629 _9_ RTR  --- 9 DSR 68 [0 ffffffff a 800] ------- [1:255 21:255 32 0] 3 [1 2] [0 2 0 0->16] [0 0 0 0->0]
r 15.070277629 _16_ RTR  --- 9 DSR 68 [0 ffffffff a 800] ------- [1:255 21:255 32 0] 3 [1 2] [0 2 0 0->16] [0 0 0 0->0]
r 15.070277629 _11_ RTR  --- 9 DSR 68 [0 ffffffff a 800] ------- [1:255 21:255 32 0] 3 [1 2] [0 2 0 0->16] [0 0 0 0->0]
r 15.070277708 _19_ RTR  --- 9 DSR 68 [0 ffffffff a 800] ------- [1:255 21:255 32 0] 3 [1 2] [0 2 0 0->16] [0 0 0 0->0]
r 15.070277708 _12_ RTR  --- 9 DSR 68 [0 ffffffff a 800] ------- [1:255 21:255 32 0] 3 [1 2] [0 2 0 0->16] [0 0 0 0->0]
r 15.070277708 _6_ RTR  --- 9 DSR 68 [0 ffffffff a 800] ------- [1:255 21:255 32 0] 3 [1 2] [0 2 0 0->16] [0 0 0 0->0]
r 15.070277708 _18_ RTR  --- 9 DSR 68 [0 ffffffff a 800] ------- [1:255 21:255 32 0] 3 [1 2] [0 2 0 0->16] [0 0 0 0->0]
r 15.070277708 _8_ RTR  --- 9 DSR 68 [0 ffffffff a 800] ------- [1:255 21:255 32 0] 3 [1 2] [0 2 0 0->16] [0 0 0 0->0]
r 15.070277708 _14_ RTR  --- 9 DSR 68 [0 ffffffff a 800] ------- [1:255 21:255 32 0] 3 [1 2] [0 2 0 0->16] [0 0 0 0->0]
s 15.070706457 _21_ RTR  --- 14 DSR 60 [0 0 0 0] ------- [21:255 1:255 254 13] 4 [0 2] [1 2 4 1->21] [0 0 0 0->0]
r 15.071519962 _13_ RTR  --- 9 DSR 92 [0 ffffffff 10 800] ------- [1:255 21:255 32 0] 4 [1 2] [0 2 0 0->16] [0 0 0 0->0]
r 15.071519962 _19_ RTR  --- 9 DSR 92 [0 ffffffff 10 800] ------- [1:255 21:255 32 0] 4 [1 2] [0 2 0 0->16] [0 0 0 0->0]
r 15.071519962 _18_ RTR  --- 9 DSR 92 [0 ffffffff 10 800] ------- [1:255 21:255 32 0] 4 [1 2] [0 2 0 0->16] [0 0 0 0->0]
r 15.071520100 _21_ RTR  --- 9 DSR 92 [0 ffffffff 10 800] ------- [1:255 21:255 32 0] 4 [1 2] [0 2 0 0->16] [0 0 0 0->0]
r 15.071520100 _20_ RTR  --- 9 DSR 92 [0 ffffffff 10 800] ------- [1:255 21:255 32 0] 4 [1 2] [0 2 0 0->16] [0 0 0 0->0]
r 15.071520296 _10_ RTR  --- 9 DSR 92 [0 ffffffff 10 800] ------- [1:255 21:255 32 0] 4 [1 2] [0 2 0 0->16] [0 0 0 0->0]
r 15.071520296 _15_ RTR  --- 9 DSR 92 [0 ffffffff 10 800] ------- [1:255 21:255 32 0] 4 [1 2] [0 2 0 0->16] [0 0 0 0->0]
r 15.071520296 _17_ RTR  --- 9 DSR 92 [0 ffffffff 10 800] ------- [1:255 21:255 32 0] 4 [1 2] [0 2 0 0->16] [0 0 0 0->0]
r 15.071520374 _23_ RTR  --- 9 DSR 92 [0 ffffffff 10 800] ------- [1:255 21:255 32 0] 4 [1 2] [0 2 0 0->16] [0 0 0 0->0]
r 15.071520374 _12_ RTR  --- 9 DSR 92 [0 ffffffff 10 800] ------- [1:255 21:255 32 0] 4 [1 2] [0 2 0 0->16] [0 0 0 0->0]
r 15.071520374 _22_ RTR  --- 9 DSR 92 [0 ffffffff 10 800] ------- [1:255 21:255 32 0] 4 [1 2] [0 2 0 0->16] [0 0 0 0->0]
r 15.071520374 _14_ RTR  --- 9 DSR 92 [0 ffffffff 10 800] ------- [1:255 21:255 32 0] 4 [1 2] [0 2 0 0->16] [0 0 0 0->0]
r 15.072550434 _18_ RTR  --- 9 DSR 68 [0 ffffffff 14 800] ------- [1:255 21:255 32 0] 3 [1 2] [0 2 0 0->16] [0 0 0 0->0]
r 15.072550434 _13_ RTR  --- 9 DSR 68 [0 ffffffff 14 800] ------- [1:255 21:255 32 0] 3 [1 2] [0 2 0 0->16] [0 0 0 0->0]
r 15.072550434 _22_ RTR  --- 9 DSR 68 [0 ffffffff 14 800] ------- [1:255 21:255 32 0] 3 [1 2] [0 2 0 0->16] [0 0 0 0->0]
r 15.072550434 _14_ RTR  --- 9 DSR 68 [0 ffffffff 14 800] ------- [1:255 21:255 32 0] 3 [1 2] [0 2 0 0->16] [0 0 0 0->0]
r 15.072550572 _16_ RTR  --- 9 DSR 68 [0 ffffffff 14 800] ------- [1:255 21:255 32 0] 3 [1 2] [0 2 0 0->16] [0 0 0 0->0]
r 15.072550572 _10_ RTR  --- 9 DSR 68 [0 ffffffff 14 800] ------- [1:255 21:255 32 0] 3 [1 2] [0 2 0 0->16] [0 0 0 0->0]
r 15.072550572 _11_ RTR  --- 9 DSR 68 [0 ffffffff 14 800] ------- [1:255 21:255 32 0] 3 [1 2] [0 2 0 0->16] [0 0 0 0->0]
r 15.072550572 _17_ RTR  --- 9 DSR 68 [0 ffffffff 14 800] ------- [1:255 21:255 32 0] 3 [1 2] [0 2 0 0->16] [0 0 0 0->0]
r 15.072550767 _21_ RTR  --- 9 DSR 68 [0 ffffffff 14 800] ------- [1:255 21:255 32 0] 3 [1 2] [0 2 0 0->16] [0 0 0 0->0]
r 15.072550767 _24_ RTR  --- 9 DSR 68 [0 ffffffff 14 800] ------- [1:255 21:255 32 0] 3 [1 2] [0 2 0 0->16] [0 0 0 0->0]
r 15.072550846 _7_ RTR  --- 9 DSR 68 [0 ffffffff 14 800] ------- [1:255 21:255 32 0] 3 [1 2] [0 2 0 0->16] [0 0 0 0->0]
r 15.072550846 _23_ RTR  --- 9 DSR 68 [0 ffffffff 14 800] ------- [1:255 21:255 32 0] 3 [1 2] [0 2 0 0->16] [0 0 0 0->0]
r 15.072550846 _19_ RTR  --- 9 DSR 68 [0 ffffffff 14 800] ------- [1:255 21:255 32 0] 3 [1 2] [0 2 0 0->16] [0 0 0 0->0]
r 15.072550846 _8_ RTR  --- 9 DSR 68 [0 ffffffff 14 800] ------- [1:255 21:255 32 0] 3 [1 2] [0 2 0 0->16] [0 0 0 0->0]
s 15.073485093 _21_ RTR  --- 13 DSR 52 [0 0 0 0] ------- [21:255 1:255 254 7] 3 [0 2] [1 2 3 1->21] [0 0 0 0->0]
r 15.074295003 _22_ RTR  --- 12 DSR 60 [13a 16 15 800] ------- [21:255 1:255 254 22] 4 [0 2] [1 2 4 1->21] [0 0 0 0->0]
f 15.074295003 _22_ RTR  --- 12 DSR 60 [13a 16 15 800] ------- [21:255 1:255 253 4] 4 [0 2] [1 2 4 1->21] [0 0 0 0->0]