n -t * -s 0  -x 100 -y 0 -Z 0 -z 30  -v circle -c black
n -t * -s 1  -x 300 -y 0 -Z 0 -z 30  -v circle -c black
n -t * -s 2  -x 500 -y 0 -Z 0 -z 30  -v circle -c black
n -t * -s 3  -x 100 -y 100 -Z 0 -z 30  -v circle -c black
n -t * -s 4  -x 300 -y 100 -Z 0 -z 30  -v circle -c black
n -t * -s 5  -x 500 -y 100 -Z 0 -z 30  -v circle -c black
n -t * -s 6  -x 100 -y 200 -Z 0 -z 30  -v circle -c black
n -t * -s 7  -x 300 -y 200 -Z 0 -z 30  -v circle -c black
n -t * -s 8  -x 500 -y 200 -Z 0 -z 30  -v circle -c black
n -t * -s 9  -x 100 -y 300 -Z 0 -z 30  -v circle -c black
n -t * -s 10  -x 300 -y 300 -Z 0 -z 30  -v circle -c black
n -t * -s 11  -x 500 -y 300 -Z 0 -z 30  -v circle -c black
n -t * -s 12  -x 100 -y 400 -Z 0 -z 30  -v circle -c black
n -t * -s 13  -x 300 -y 400 -Z 0 -z 30  -v circle -c black
n -t * -s 14  -x 500 -y 400 -Z 0 -z 30  -v circle -c black
n -t * -s 15  -x 100 -y 500 -Z 0 -z 30  -v circle -c black
n -t * -s 16  -x 300 -y 500 -Z 0 -z 30  -v circle -c black
n -t * -s 17  -x 500 -y 500 -Z 0 -z 30  -v circle -c black
n -t * -s 18  -x 400 -y 500 -Z 0 -z 30  -v circle -c black
n -t * -s 19  -x 200 -y 500 -Z 0 -z 30  -v circle -c black
n -t * -s 20  -x 400 -y 400 -Z 0 -z 30  -v circle -c black
n -t * -s 21  -x 200 -y 400 -Z 0 -z 30  -v circle -c black
n -t * -s 22  -x 400 -y 300 -Z 0 -z 30  -v circle -c black
n -t * -s 23  -x 200 -y 300 -Z 0 -z 30  -v circle -c black
n -t * -s 24  -x 400 -y 200 -Z 0 -z 30  -v circle -c black
n -t * -s 25  -x 200 -y 200 -Z 0 -z 30  -v circle -c black
V -t * -v 1.0a5 -a 0
W -t * -x 500 -y 500
A -t * -n 1 -p 0 -o 0xffffffff -c 31 -a 1
A -t * -h 1 -m 2147483647 -s 0
+ -t 15.000000000 -s 0 -d -1 -p cbr -e 512 -c 2 -a 0 -i 0 -k AGT 
- -t 15.000000000 -s 0 -d -1 -p cbr -e 512 -c 2 -a 0 -i 0 -k AGT
h -t 15.000000000 -s 0 -d -1 -p cbr -e 512 -c 2 -a 0 -i 0 -k AGT
+ -t 15.000000000 -s 1 -d -1 -p cbr -e 512 -c 2 -a 0 -i 2 -k AGT 
- -t 15.000000000 -s 1 -d -1 -p cbr -e 512 -c 2 -a 0 -i 2 -k AGT
h -t 15.000000000 -s 1 -d -1 -p cbr -e 512 -c 2 -a 0 -i 2 -k AGT
+ -t 15.000000000 -s 24 -d -1 -p cbr -e 512 -c 2 -a 0 -i 4 -k AGT 
- -t 15.000000000 -s 24 -d -1 -p cbr -e 512 -c 2 -a 0 -i 4 -k AGT
h -t 15.000000000 -s 24 -d -1 -p cbr -e 512 -c 2 -a 0 -i 4 -k AGT
+ -t 15.007330027 -s 24 -d -1 -p DSR -e 32 -c 2 -a 0 -i 5 -k RTR 
- -t 15.007330027 -s 24 -d -1 -p DSR -e 32 -c 2 -a 0 -i 5 -k RTR
h -t 15.007330027 -s 24 -d -1 -p DSR -e 32 -c 2 -a 0 -i 5 -k RTR
+ -t 15.007567781 -s 0 -d -1 -p DSR -e 32 -c 2 -a 0 -i 1 -k RTR 
- -t 15.007567781 -s 0 -d -1 -p DSR -e 32 -c 2 -a 0 -i 1 -k RTR
h -t 15.007567781 -s 0 -d -1 -p DSR -e 32 -c 2 -a 0 -i 1 -k RTR
+ -t 15.008533240 -s 1 -d -1 -p DSR -e 32 -c 2 -a 0 -i 3 -k RTR 
- -t 15.008533240 -s 1 -d -1 -p DSR -e 32 -c 2 -a 0 -i 3 -k RTR
h -t 15.008533240 -s 1 -d -1 -p DSR -e 32 -c 2 -a 0 -i 3 -k RTR
+ -t 15.015955907 -s 25 -d 24 -p DSR -e 44 -c 2 -a 0 -i 7 -k RTR 
- -t 15.015955907 -s 25 -d 24 -p DSR -e 44 -c 2 -a 0 -i 7 -k RTR
h -t 15.015955907 -s 25 -d 24 -p DSR -e 44 -c 2 -a 0 -i 7 -k RTR
+ -t 15.017621907 -s 24 -d 25 -p cbr -e 548 -c 2 -a 0 -i 4 -k RTR 
- -t 15.017621907 -s 24 -d 25 -p cbr -e 548 -c 2 -a 0 -i 4 -k RTR
h -t 15.017621907 -s 24 -d 25 -p cbr -e 548 -c 2 -a 0 -i 4 -k RTR
r -t 15.023463907 -s 25 -d 25 -p cbr -e 512 -c 2 -a 0 -i 4 -k AGT
+ -t 15.053893613 -s 1 -d -1 -p DSR -e 32 -c 2 -a 0 -i 9 -k RTR 
- -t 15.053893613 -s 1 -d -1 -p DSR -e 32 -c 2 -a 0 -i 9 -k RTR
h -t 15.053893613 -s 1 -d -1 -p DSR -e 32 -c 2 -a 0 -i 9 -k RTR
+ -t 15.055200273 -s 2 -d -1 -p DSR -e 48 -c 2 -a 0 -i 9 -k RTR 
- -t 15.055200273 -s 2 -d -1 -p DSR -e 48 -c 2 -a 0 -i 9 -k RTR
h -t 15.055200273 -s 2 -d -1 -p DSR -e 48 -c 2 -a 0 -i 9 -k RTR
+ -t 15.055290711 -s 4 -d -1 -p DSR -e 48 -c 2 -a 0 -i 9 -k RTR 
- -t 15.055290711 -s 4 -d -1 -p DSR -e 48 -c 2 -a 0 -i 9 -k RTR
h -t 15.055290711 -s 4 -d -1 -p DSR -e 48 -c 2 -a 0 -i 9 -k RTR
+ -t 15.056516376 -s 8 -d -1 -p DSR -e 68 -c 2 -a 0 -i 9 -k RTR 
- -t 15.056516376 -s 8 -d -1 -p DSR -e 68 -c 2 -a 0 -i 9 -k RTR
h -t 15.056516376 -s 8 -d -1 -p DSR -e 68 -c 2 -a 0 -i 9 -k RTR
+ -t 15.057131199 -s 24 -d -1 -p DSR -e 48 -c 2 -a 0 -i 9 -k RTR 
- -t 15.057131199 -s 24 -d -1 -p DSR -e 48 -c 2 -a 0 -i 9 -k RTR
h -t 15.057131199 -s 24 -d -1 -p DSR -e 48 -c 2 -a 0 -i 9 -k RTR
+ -t 15.058142889 -s 3 -d -1 -p DSR -e 48 -c 2 -a 0 -i 9 -k RTR 
- -t 15.058142889 -s 3 -d -1 -p DSR -e 48 -c 2 -a 0 -i 9 -k RTR
h -t 15.058142889 -s 3 -d -1 -p DSR -e 48 -c 2 -a 0 -i 9 -k RTR
+ -t 15.059113394 -s 0 -d -1 -p DSR -e 48 -c 2 -a 0 -i 9 -k RTR 
- -t 15.059113394 -s 0 -d -1 -p DSR -e 48 -c 2 -a 0 -i 9 -k RTR
h -t 15.059113394 -s 0 -d -1 -p DSR -e 48 -c 2 -a 0 -i 9 -k RTR
+ -t 15.059848759 -s 23 -d -1 -p DSR -e 68 -c 2 -a 0 -i 9 -k RTR 
- -t 15.059848759 -s 23 -d -1 -p DSR -e 68 -c 2 -a 0 -i 9 -k RTR
h -t 15.059848759 -s 23 -d -1 -p DSR -e 68 -c 2 -a 0 -i 9 -k RTR
+ -t 15.060545743 -s 22 -d -1 -p DSR -e 68 -c 2 -a 0 -i 9 -k RTR 
- -t 15.060545743 -s 22 -d -1 -p DSR -e 68 -c 2 -a 0 -i 9 -k RTR
h -t 15.060545743 -s 22 -d -1 -p DSR -e 68 -c 2 -a 0 -i 9 -k RTR
+ -t 15.060912188 -s 7 -d -1 -p DSR -e 48 -c 2 -a 0 -i 9 -k RTR 
- -t 15.060912188 -s 7 -d -1 -p DSR -e 48 -c 2 -a 0 -i 9 -k RTR
h -t 15.060912188 -s 7 -d -1 -p DSR -e 48 -c 2 -a 0 -i 9 -k RTR
+ -t 15.061145688 -s 15 -d -1 -p DSR -e 92 -c 2 -a 0 -i 9 -k RTR 
- -t 15.061145688 -s 15 -d -1 -p DSR -e 92 -c 2 -a 0 -i 9 -k RTR
h -t 15.061145688 -s 15 -d -1 -p DSR -e 92 -c 2 -a 0 -i 9 -k RTR
+ -t 15.061518066 -s 12 -d -1 -p DSR -e 92 -c 2 -a 0 -i 9 -k RTR 
- -t 15.061518066 -s 12 -d -1 -p DSR -e 92 -c 2 -a 0 -i 9 -k RTR
h -t 15.061518066 -s 12 -d -1 -p DSR -e 92 -c 2 -a 0 -i 9 -k RTR
+ -t 15.061703061 -s 21 -d 23 -p DSR -e 60 -c 2 -a 0 -i 11 -k RTR 
- -t 15.061703061 -s 21 -d 23 -p DSR -e 60 -c 2 -a 0 -i 11 -k RTR
h -t 15.061703061 -s 21 -d 23 -p DSR -e 60 -c 2 -a 0 -i 11 -k RTR
+ -t 15.062679459 -s 19 -d -1 -p DSR -e 92 -c 2 -a 0 -i 9 -k RTR 
- -t 15.062679459 -s 19 -d -1 -p DSR -e 92 -c 2 -a 0 -i 9 -k RTR
h -t 15.062679459 -s 19 -d -1 -p DSR -e 92 -c 2 -a 0 -i 9 -k RTR
+ -t 15.063006433 -s 25 -d -1 -p DSR -e 48 -c 2 -a 0 -i 9 -k RTR 
- -t 15.063006433 -s 25 -d -1 -p DSR -e 48 -c 2 -a 0 -i 9 -k RTR
h -t 15.063006433 -s 25 -d -1 -p DSR -e 48 -c 2 -a 0 -i 9 -k RTR
+ -t 15.063561031 -s 10 -d -1 -p DSR -e 68 -c 2 -a 0 -i 9 -k RTR 
- -t 15.063561031 -s 10 -d -1 -p DSR -e 68 -c 2 -a 0 -i 9 -k RTR
h -t 15.063561031 -s 10 -d -1 -p DSR -e 68 -c 2 -a 0 -i 9 -k RTR
+ -t 15.064048487 -s 5 -d -1 -p DSR -e 48 -c 2 -a 0 -i 9 -k RTR 
- -t 15.064048487 -s 5 -d -1 -p DSR -e 48 -c 2 -a 0 -i 9 -k RTR
h -t 15.064048487 -s 5 -d -1 -p DSR -e 48 -c 2 -a 0 -i 9 -k RTR
+ -t 15.064141289 -s 23 -d 4 -p DSR -e 60 -c 2 -a 0 -i 11 -k RTR 
- -t 15.064141289 -s 23 -d 4 -p DSR -e 60 -c 2 -a 0 -i 11 -k RTR
h -t 15.064141289 -s 23 -d 4 -p DSR -e 60 -c 2 -a 0 -i 11 -k RTR
+ -t 15.064243490 -s 13 -d -1 -p DSR -e 68 -c 2 -a 0 -i 9 -k RTR 
- -t 15.064243490 -s 13 -d -1 -p DSR -e 68 -c 2 -a 0 -i 9 -k RTR
h -t 15.064243490 -s 13 -d -1 -p DSR -e 68 -c 2 -a 0 -i 9 -k RTR
+ -t 15.064304215 -s 11 -d -1 -p DSR -e 68 -c 2 -a 0 -i 9 -k RTR 
- -t 15.064304215 -s 11 -d -1 -p DSR -e 68 -c 2 -a 0 -i 9 -k RTR
h -t 15.064304215 -s 11 -d -1 -p DSR -e 68 -c 2 -a 0 -i 9 -k RTR
+ -t 15.064690868 -s 6 -d -1 -p DSR -e 68 -c 2 -a 0 -i 9 -k RTR 
- -t 15.064690868 -s 6 -d -1 -p DSR -e 68 -c 2 -a 0 -i 9 -k RTR
h -t 15.064690868 -s 6 -d -1 -p DSR -e 68 -c 2 -a 0 -i 9 -k RTR
+ -t 15.065012503 -s 18 -d -1 -p DSR -e 92 -c 2 -a 0 -i 9 -k RTR 
- -t 15.065012503 -s 18 -d -1 -p DSR -e 92 -c 2 -a 0 -i 9 -k RTR
h -t 15.065012503 -s 18 -d -1 -p DSR -e 92 -c 2 -a 0 -i 9 -k RTR
+ -t 15.065551718 -s 21 -d 22 -p DSR -e 60 -c 2 -a 0 -i 12 -k RTR 
- -t 15.065551718 -s 21 -d 22 -p DSR -e 60 -c 2 -a 0 -i 12 -k RTR
h -t 15.065551718 -s 21 -d 22 -p DSR -e 60 -c 2 -a 0 -i 12 -k RTR
+ -t 15.066765754 -s 0 -d -1 -p DSR -e 32 -c 2 -a 0 -i 10 -k RTR 
- -t 15.066765754 -s 0 -d -1 -p DSR -e 32 -c 2 -a 0 -i 10 -k RTR
h -t 15.066765754 -s 0 -d -1 -p DSR -e 32 -c 2 -a 0 -i 10 -k RTR
+ -t 15.068061592 -s 16 -d -1 -p DSR -e 92 -c 2 -a 0 -i 9 -k RTR 
- -t 15.068061592 -s 16 -d -1 -p DSR -e 92 -c 2 -a 0 -i 9 -k RTR
h -t 15.068061592 -s 16 -d -1 -p DSR -e 92 -c 2 -a 0 -i 9 -k RTR
+ -t 15.068395937 -s 20 -d -1 -p DSR -e 68 -c 2 -a 0 -i 9 -k RTR 
- -t 15.068395937 -s 20 -d -1 -p DSR -e 68 -c 2 -a 0 -i 9 -k RTR
h -t 15.068395937 -s 20 -d -1 -p DSR -e 68 -c 2 -a 0 -i 9 -k RTR
+ -t 15.068573220 -s 14 -d -1 -p DSR -e 68 -c 2 -a 0 -i 9 -k RTR 
- -t 15.068573220 -s 14 -d -1 -p DSR -e 68 -c 2 -a 0 -i 9 -k RTR
h -t 15.068573220 -s 14 -d -1 -p DSR -e 68 -c 2 -a 0 -i 9 -k RTR
+ -t 15.068861232 -s 17 -d -1 -p DSR -e 92 -c 2 -a 0 -i 9 -k RTR 
- -t 15.068861232 -s 17 -d -1 -p DSR -e 92 -c 2 -a 0 -i 9 -k RTR
h -t 15.068861232 -s 17 -d -1 -p DSR -e 92 -c 2 -a 0 -i 9 -k RTR
+ -t 15.069374858 -s 9 -d -1 -p DSR -e 92 -c 2 -a 0 -i 9 -k RTR 
- -t 15.069374858 -s 9 -d -1 -p DSR -e 92 -c 2 -a 0 -i 9 -k RTR
h -t 15.069374858 -s 9 -d -1 -p DSR -e 92 -c 2 -a 0 -i 9 -k RTR
+ -t 15.070706457 -s 21 -d 13 -p DSR -e 60 -c 2 -a 0 -i 14 -k RTR 
- -t 15.070706457 -s 21 -d 13 -p DSR -e 60 -c 2 -a 0 -i 14 -k RTR
h -t 15.070706457 -s 21 -d 13 -p DSR -e 60 -c 2 -a 0 -i 14 -k RTR
+ -t 15.073485093 -s 21 -d 7 -p DSR -e 52 -c 2 -a 0 -i 13 -k RTR 
- -t 15.073485093 -s 21 -d 7 -p DSR -e 52 -c 2 -a 0 -i 13 -k RTR
h -t 15.073485093 -s 21 -d 7 -p DSR -e 52 -c 2 -a 0 -i 13 -k RTR
+ -t 15.074295003 -s 22 -d 4 -p DSR -e 60 -c 2 -a 0 -i 12 -k RTR 
- -t 15.074295003 -s 22 -d 4 -p DSR -e 60 -c 2 -a 0 -i 12 -k RTR
h -t 15.074295003 -s 22 -d 4 -p DSR -e 60 -c 2 -a 0 -i 12 -k RTR
+ -t 15.074811203 -s 21 -d 15 -p DSR -e 68 -c 2 -a 0 -i 15 -k RTR 
- -t 15.074811203 -s 21 -d 15 -p DSR -e 68 -c 2 -a 0 -i 15 -k RTR
h -t 15.074811203 -s 21 -d 15 -p DSR -e 68 -c 2 -a 0 -i 15 -k RTR
+ -t 15.075206989 -s 21 -d 16 -p DSR -e 68 -c 2 -a 0 -i 17 -k RTR 
- -t 15.075206989 -s 21 -d 16 -p DSR -e 68 -c 2 -a 0 -i 17 -k RTR
h -t 15.075206989 -s 21 -d 16 -p DSR -e 68 -c 2 -a 0 -i 17 -k RTR
+ -t 15.076797906 -s 21 -d 10 -p DSR -e 60 -c 2 -a 0 -i 16 -k RTR 
- -t 15.076797906 -s 21 -d 10 -p DSR -e 60 -c 2 -a 0 -i 16 -k RTR
h -t 15.076797906 -s 21 -d 10 -p DSR -e 60 -c 2 -a 0 -i 16 -k RTR
+ -t 15.077664539 -s 21 -d 20 -p DSR -e 60 -c 2 -a 0 -i 18 -k RTR 
- -t 15.077664539 -s 21 -d 20 -p DSR -e 60 -c 2 -a 0 -i 18 -k RTR
h -t 15.077664539 -s 21 -d 20 -p DSR -e 60 -c 2 -a 0 -i 18 -k RTR
+ -t 15.078184380 -s 3 -d -1 -p DSR -e 48 -c 2 -a 0 -i 10 -k RTR 
- -t 15.078184380 -s 3 -d -1 -p DSR -e 48 -c 2 -a 0 -i 10 -k RTR
h -t 15.078184380 -s 3 -d -1 -p DSR -e 48 -c 2 -a 0 -i 10 -k RTR
+ -t 15.081357349 -s 4 -d -1 -p DSR -e 68 -c 2 -a 0 -i 10 -k RTR 
- -t 15.081357349 -s 4 -d -1 -p DSR -e 68 -c 2 -a 0 -i 10 -k RTR
h -t 15.081357349 -s 4 -d -1 -p DSR -e 68 -c 2 -a 0 -i 10 -k RTR
+ -t 15.081780000 -s 21 -d 18 -p DSR -e 68 -c 2 -a 0 -i 20 -k RTR 
- -t 15.081780000 -s 21 -d 18 -p DSR -e 68 -c 2 -a 0 -i 20 -k RTR
h -t 15.081780000 -s 21 -d 18 -p DSR -e 68 -c 2 -a 0 -i 20 -k RTR
+ -t 15.082219613 -s 4 -d 1 -p DSR -e 60 -c 2 -a 0 -i 11 -k RTR 
- -t 15.082219613 -s 4 -d 1 -p DSR -e 60 -c 2 -a 0 -i 11 -k RTR
h -t 15.082219613 -s 4 -d 1 -p DSR -e 60 -c 2 -a 0 -i 11 -k RTR
+ -t 15.082583482 -s 6 -d -1 -p DSR -e 48 -c 2 -a 0 -i 10 -k RTR 
- -t 15.082583482 -s 6 -d -1 -p DSR -e 48 -c 2 -a 0 -i 10 -k RTR
h -t 15.082583482 -s 6 -d -1 -p DSR -e 48 -c 2 -a 0 -i 10 -k RTR
+ -t 15.084131186 -s 21 -d 6 -p DSR -e 60 -c 2 -a 0 -i 21 -k RTR 
- -t 15.084131186 -s 21 -d 6 -p DSR -e 60 -c 2 -a 0 -i 21 -k RTR
h -t 15.084131186 -s 21 -d 6 -p DSR -e 60 -c 2 -a 0 -i 21 -k RTR
+ -t 15.084901323 -s 1 -d -1 -p DSR -e 48 -c 2 -a 0 -i 10 -k RTR 
- -t 15.084901323 -s 1 -d -1 -p DSR -e 48 -c 2 -a 0 -i 10 -k RTR
h -t 15.084901323 -s 1 -d -1 -p DSR -e 48 -c 2 -a 0 -i 10 -k RTR
+ -t 15.085748374 -s 23 -d -1 -p DSR -e 68 -c 2 -a 0 -i 10 -k RTR 
- -t 15.085748374 -s 23 -d -1 -p DSR -e 68 -c 2 -a 0 -i 10 -k RTR
h -t 15.085748374 -s 23 -d -1 -p DSR -e 68 -c 2 -a 0 -i 10 -k RTR
+ -t 15.086011103 -s 25 -d -1 -p DSR -e 68 -c 2 -a 0 -i 10 -k RTR 
- -t 15.086011103 -s 25 -d -1 -p DSR -e 68 -c 2 -a 0 -i 10 -k RTR
h -t 15.086011103 -s 25 -d -1 -p DSR -e 68 -c 2 -a 0 -i 10 -k RTR
+ -t 15.087082450 -s 9 -d -1 -p DSR -e 68 -c 2 -a 0 -i 10 -k RTR 
- -t 15.087082450 -s 9 -d -1 -p DSR -e 68 -c 2 -a 0 -i 10 -k RTR
h -t 15.087082450 -s 9 -d -1 -p DSR -e 68 -c 2 -a 0 -i 10 -k RTR
+ -t 15.088270533 -s 21 -d 25 -p DSR -e 52 -c 2 -a 0 -i 23 -k RTR 
- -t 15.088270533 -s 21 -d 25 -p DSR -e 52 -c 2 -a 0 -i 23 -k RTR
h -t 15.088270533 -s 21 -d 25 -p DSR -e 52 -c 2 -a 0 -i 23 -k RTR
+ -t 15.088299907 -s 10 -d -1 -p DSR -e 92 -c 2 -a 0 -i 10 -k RTR 
- -t 15.088299907 -s 10 -d -1 -p DSR -e 92 -c 2 -a 0 -i 10 -k RTR
h -t 15.088299907 -s 10 -d -1 -p DSR -e 92 -c 2 -a 0 -i 10 -k RTR
+ -t 15.088781513 -s 2 -d -1 -p DSR -e 92 -c 2 -a 0 -i 10 -k RTR 
- -t 15.088781513 -s 2 -d -1 -p DSR -e 92 -c 2 -a 0 -i 10 -k RTR
h -t 15.088781513 -s 2 -d -1 -p DSR -e 92 -c 2 -a 0 -i 10 -k RTR
+ -t 15.089076967 -s 21 -d -1 -p DSR -e 92 -c 2 -a 0 -i 10 -k RTR 
- -t 15.089076967 -s 21 -d -1 -p DSR -e 92 -c 2 -a 0 -i 10 -k RTR
h -t 15.089076967 -s 21 -d -1 -p DSR -e 92 -c 2 -a 0 -i 10 -k RTR
+ -t 15.089923616 -s 7 -d 1 -p DSR -e 52 -c 2 -a 0 -i 13 -k RTR 
- -t 15.089923616 -s 7 -d 1 -p DSR -e 52 -c 2 -a 0 -i 13 -k RTR
h -t 15.089923616 -s 7 -d 1 -p DSR -e 52 -c 2 -a 0 -i 13 -k RTR
+ -t 15.089974930 -s 7 -d -1 -p DSR -e 68 -c 2 -a 0 -i 10 -k RTR 
- -t 15.089974930 -s 7 -d -1 -p DSR -e 68 -c 2 -a 0 -i 10 -k RTR
h -t 15.089974930 -s 7 -d -1 -p DSR -e 68 -c 2 -a 0 -i 10 -k RTR
+ -t 15.090141118 -s 21 -d 12 -p DSR -e 68 -c 2 -a 0 -i 22 -k RTR 
- -t 15.090141118 -s 21 -d 12 -p DSR -e 68 -c 2 -a 0 -i 22 -k RTR
h -t 15.090141118 -s 21 -d 12 -p DSR -e 68 -c 2 -a 0 -i 22 -k RTR
+ -t 15.091652106 -s 24 -d -1 -p DSR -e 92 -c 2 -a 0 -i 10 -k RTR 
- -t 15.091652106 -s 24 -d -1 -p DSR -e 92 -c 2 -a 0 -i 10 -k RTR
h -t 15.091652106 -s 24 -d -1 -p DSR -e 92 -c 2 -a 0 -i 10 -k RTR
+ -t 15.092463374 -s 21 -d 9 -p DSR -e 68 -c 2 -a 0 -i 24 -k RTR 
- -t 15.092463374 -s 21 -d 9 -p DSR -e 68 -c 2 -a 0 -i 24 -k RTR
h -t 15.092463374 -s 21 -d 9 -p DSR -e 68 -c 2 -a 0 -i 24 -k RTR
+ -t 15.092851484 -s 8 -d -1 -p DSR -e 92 -c 2 -a 0 -i 10 -k RTR 
- -t 15.092851484 -s 8 -d -1 -p DSR -e 92 -c 2 -a 0 -i 10 -k RTR
h -t 15.092851484 -s 8 -d -1 -p DSR -e 92 -c 2 -a 0 -i 10 -k RTR
+ -t 15.093967180 -s 22 -d -1 -p DSR -e 92 -c 2 -a 0 -i 10 -k RTR 
- -t 15.093967180 -s 22 -d -1 -p DSR -e 92 -c 2 -a 0 -i 10 -k RTR
h -t 15.093967180 -s 22 -d -1 -p DSR -e 92 -c 2 -a 0 -i 10 -k RTR
+ -t 15.094087398 -s 13 -d -1 -p DSR -e 120 -c 2 -a 0 -i 10 -k RTR 
- -t 15.094087398 -s 13 -d -1 -p DSR -e 120 -c 2 -a 0 -i 10 -k RTR
h -t 15.094087398 -s 13 -d -1 -p DSR -e 120 -c 2 -a 0 -i 10 -k RTR
+ -t 15.094181652 -s 19 -d 10 -p DSR -e 68 -c 2 -a 0 -i 25 -k RTR 
- -t 15.094181652 -s 19 -d 10 -p DSR -e 68 -c 2 -a 0 -i 25 -k RTR
h -t 15.094181652 -s 19 -d 10 -p DSR -e 68 -c 2 -a 0 -i 25 -k RTR
+ -t 15.096149885 -s 5 -d -1 -p DSR -e 92 -c 2 -a 0 -i 10 -k RTR 
- -t 15.096149885 -s 5 -d -1 -p DSR -e 92 -c 2 -a 0 -i 10 -k RTR
h -t 15.096149885 -s 5 -d -1 -p DSR -e 92 -c 2 -a 0 -i 10 -k RTR
+ -t 15.096779931 -s 1 -d 4 -p cbr -e 556 -c 2 -a 0 -i 2 -k RTR 
- -t 15.096779931 -s 1 -d 4 -p cbr -e 556 -c 2 -a 0 -i 2 -k RTR
h -t 15.096779931 -s 1 -d 4 -p cbr -e 556 -c 2 -a 0 -i 2 -k RTR
+ -t 15.096872447 -s 12 -d -1 -p DSR -e 68 -c 2 -a 0 -i 10 -k RTR 
- -t 15.096872447 -s 12 -d -1 -p DSR -e 68 -c 2 -a 0 -i 10 -k RTR
h -t 15.096872447 -s 12 -d -1 -p DSR -e 68 -c 2 -a 0 -i 10 -k RTR
+ -t 15.097382155 -s 20 -d -1 -p DSR -e 120 -c 2 -a 0 -i 10 -k RTR 
- -t 15.097382155 -s 20 -d -1 -p DSR -e 120 -c 2 -a 0 -i 10 -k RTR
h -t 15.097382155 -s 20 -d -1 -p DSR -e 120 -c 2 -a 0 -i 10 -k RTR
+ -t 15.098423387 -s 16 -d -1 -p DSR -e 120 -c 2 -a 0 -i 10 -k RTR 
- -t 15.098423387 -s 16 -d -1 -p DSR -e 120 -c 2 -a 0 -i 10 -k RTR
h -t 15.098423387 -s 16 -d -1 -p DSR -e 120 -c 2 -a 0 -i 10 -k RTR
+ -t 15.098520870 -s 14 -d -1 -p DSR -e 120 -c 2 -a 0 -i 10 -k RTR 
- -t 15.098520870 -s 14 -d -1 -p DSR -e 120 -c 2 -a 0 -i 10 -k RTR
h -t 15.098520870 -s 14 -d -1 -p DSR -e 120 -c 2 -a 0 -i 10 -k RTR
+ -t 15.099619234 -s 18 -d -1 -p DSR -e 120 -c 2 -a 0 -i 10 -k RTR 
- -t 15.099619234 -s 18 -d -1 -p DSR -e 120 -c 2 -a 0 -i 10 -k RTR
h -t 15.099619234 -s 18 -d -1 -p DSR -e 120 -c 2 -a 0 -i 10 -k RTR
+ -t 15.101991411 -s 11 -d -1 -p DSR -e 120 -c 2 -a 0 -i 10 -k RTR 
- -t 15.101991411 -s 11 -d -1 -p DSR -e 120 -c 2 -a 0 -i 10 -k RTR
h -t 15.101991411 -s 11 -d -1 -p DSR -e 120 -c 2 -a 0 -i 10 -k RTR
+ -t 15.107073755 -s 4 -d 23 -p cbr -e 556 -c 2 -a 0 -i 2 -k RTR 
- -t 15.107073755 -s 4 -d 23 -p cbr -e 556 -c 2 -a 0 -i 2 -k RTR
h -t 15.107073755 -s 4 -d 23 -p cbr -e 556 -c 2 -a 0 -i 2 -k RTR
+ -t 15.113039991 -s 23 -d 21 -p cbr -e 556 -c 2 -a 0 -i 2 -k RTR 
- -t 15.113039991 -s 23 -d 21 -p cbr -e 556 -c 2 -a 0 -i 2 -k RTR
h -t 15.113039991 -s 23 -d 21 -p cbr -e 556 -c 2 -a 0 -i 2 -k RTR
+ -t 15.116481660 -s 12 -d 23 -p DSR -e 68 -c 2 -a 0 -i 22 -k RTR 
- -t 15.116481660 -s 12 -d 23 -p DSR -e 68 -c 2 -a 0 -i 22 -k RTR
h -t 15.116481660 -s 12 -d 23 -p DSR -e 68 -c 2 -a 0 -i 22 -k RTR
+ -t 15.118713844 -s 15 -d -1 -p DSR -e 152 -c 2 -a 0 -i 10 -k RTR 
- -t 15.118713844 -s 15 -d -1 -p DSR -e 152 -c 2 -a 0 -i 10 -k RTR
h -t 15.118713844 -s 15 -d -1 -p DSR -e 152 -c 2 -a 0 -i 10 -k RTR
+ -t 15.119199729 -s 19 -d 16 -p DSR -e 76 -c 2 -a 0 -i 27 -k RTR 
- -t 15.119199729 -s 19 -d 16 -p DSR -e 76 -c 2 -a 0 -i 27 -k RTR
h -t 15.119199729 -s 19 -d 16 -p DSR -e 76 -c 2 -a 0 -i 27 -k RTR
+ -t 15.120700934 -s 21 -d 19 -p DSR -e 68 -c 2 -a 0 -i 28 -k RTR 
- -t 15.120700934 -s 21 -d 19 -p DSR -e 68 -c 2 -a 0 -i 28 -k RTR
h -t 15.120700934 -s 21 -d 19 -p DSR -e 68 -c 2 -a 0 -i 28 -k RTR
+ -t 15.122322624 -s 23 -d 4 -p DSR -e 68 -c 2 -a 0 -i 22 -k RTR 
- -t 15.122322624 -s 23 -d 4 -p DSR -e 68 -c 2 -a 0 -i 22 -k RTR
h -t 15.122322624 -s 23 -d 4 -p DSR -e 68 -c 2 -a 0 -i 22 -k RTR
+ -t 15.125189402 -s 17 -d -1 -p DSR -e 152 -c 2 -a 0 -i 10 -k RTR 
- -t 15.125189402 -s 17 -d -1 -p DSR -e 152 -c 2 -a 0 -i 10 -k RTR
h -t 15.125189402 -s 17 -d -1 -p DSR -e 152 -c 2 -a 0 -i 10 -k RTR
+ -t 15.125398283 -s 1 -d -1 -p cbr -e 512 -c 2 -a 0 -i 30 -k AGT 
- -t 15.125398283 -s 1 -d -1 -p cbr -e 512 -c 2 -a 0 -i 30 -k AGT
h -t 15.125398283 -s 1 -d -1 -p cbr -e 512 -c 2 -a 0 -i 30 -k AGT
+ -t 15.125398283 -s 1 -d 7 -p cbr -e 552 -c 2 -a 0 -i 30 -k RTR 
- -t 15.125398283 -s 1 -d 7 -p cbr -e 552 -c 2 -a 0 -i 30 -k RTR
h -t 15.125398283 -s 1 -d 7 -p cbr -e 552 -c 2 -a 0 -i 30 -k RTR
+ -t 15.129847788 -s 19 -d 12 -p DSR -e 60 -c 2 -a 0 -i 29 -k RTR 
- -t 15.129847788 -s 19 -d 12 -p DSR -e 60 -c 2 -a 0 -i 29 -k RTR
h -t 15.129847788 -s 19 -d 12 -p DSR -e 60 -c 2 -a 0 -i 29 -k RTR
+ -t 15.131824958 -s 24 -d -1 -p cbr -e 512 -c 2 -a 0 -i 31 -k AGT 
- -t 15.131824958 -s 24 -d -1 -p cbr -e 512 -c 2 -a 0 -i 31 -k AGT
h -t 15.131824958 -s 24 -d -1 -p cbr -e 512 -c 2 -a 0 -i 31 -k AGT
+ -t 15.131824958 -s 24 -d 25 -p cbr -e 548 -c 2 -a 0 -i 31 -k RTR 
- -t 15.131824958 -s 24 -d 25 -p cbr -e 548 -c 2 -a 0 -i 31 -k RTR
h -t 15.131824958 -s 24 -d 25 -p cbr -e 548 -c 2 -a 0 -i 31 -k RTR
+ -t 15.132888271 -s 7 -d 21 -p cbr -e 552 -c 2 -a 0 -i 30 -k RTR 
- -t 15.132888271 -s 7 -d 21 -p cbr -e 552 -c 2 -a 0 -i 30 -k RTR
h -t 15.132888271 -s 7 -d 21 -p cbr -e 552 -c 2 -a 0 -i 30 -k RTR
r -t 15.138830604 -s 25 -d 25 -p cbr -e 512 -c 2 -a 0 -i 31 -k AGT
+ -t 15.140499394 -s 0 -d -1 -p cbr -e 512 -c 2 -a 0 -i 32 -k AGT 
- -t 15.140499394 -s 0 -d -1 -p cbr -e 512 -c 2 -a 0 -i 32 -k AGT
h -t 15.140499394 -s 0 -d -1 -p cbr -e 512 -c 2 -a 0 -i 32 -k AGT
+ -t 15.141547171 -s 19 -d 13 -p DSR -e 76 -c 2 -a 0 -i 34 -k RTR 
- -t 15.141547171 -s 19 -d 13 -p DSR -e 76 -c 2 -a 0 -i 34 -k RTR
h -t 15.141547171 -s 19 -d 13 -p DSR -e 76 -c 2 -a 0 -i 34 -k RTR
+ -t 15.145297961 -s 19 -d 15 -p DSR -e 84 -c 2 -a 0 -i 35 -k RTR 
- -t 15.145297961 -s 19 -d 15 -p DSR -e 84 -c 2 -a 0 -i 35 -k RTR
h -t 15.145297961 -s 19 -d 15 -p DSR -e 84 -c 2 -a 0 -i 35 -k RTR
r -t 15.148005840 -s 21 -d 21 -p cbr -e 512 -c 2 -a 0 -i 2 -k AGT
+ -t 15.149964822 -s 4 -d 1 -p DSR -e 60 -c 2 -a 0 -i 12 -k RTR 
- -t 15.149964822 -s 4 -d 1 -p DSR -e 60 -c 2 -a 0 -i 12 -k RTR
h -t 15.149964822 -s 4 -d 1 -p DSR -e 60 -c 2 -a 0 -i 12 -k RTR
r -t 15.155859391 -s 21 -d 21 -p cbr -e 512 -c 2 -a 0 -i 30 -k AGT
+ -t 15.157980806 -s 9 -d 23 -p DSR -e 68 -c 2 -a 0 -i 24 -k RTR 
- -t 15.157980806 -s 9 -d 23 -p DSR -e 68 -c 2 -a 0 -i 24 -k RTR
h -t 15.157980806 -s 9 -d 23 -p DSR -e 68 -c 2 -a 0 -i 24 -k RTR
+ -t 15.160206551 -s 16 -d 10 -p DSR -e 76 -c 2 -a 0 -i 27 -k RTR 
- -t 15.160206551 -s 16 -d 10 -p DSR -e 76 -c 2 -a 0 -i 27 -k RTR
h -t 15.160206551 -s 16 -d 10 -p DSR -e 76 -c 2 -a 0 -i 27 -k RTR
+ -t 15.162229532 -s 4 -d 1 -p DSR -e 68 -c 2 -a 0 -i 22 -k RTR 
- -t 15.162229532 -s 4 -d 1 -p DSR -e 68 -c 2 -a 0 -i 22 -k RTR
h -t 15.162229532 -s 4 -d 1 -p DSR -e 68 -c 2 -a 0 -i 22 -k RTR
+ -t 15.170341665 -s 10 -d 4 -p DSR -e 76 -c 2 -a 0 -i 27 -k RTR 
- -t 15.170341665 -s 10 -d 4 -p DSR -e 76 -c 2 -a 0 -i 27 -k RTR
h -t 15.170341665 -s 10 -d 4 -p DSR -e 76 -c 2 -a 0 -i 27 -k RTR
+ -t 15.172407665 -s 4 -d 3 -p DSR -e 76 -c 2 -a 0 -i 27 -k RTR 
- -t 15.172407665 -s 4 -d 3 -p DSR -e 76 -c 2 -a 0 -i 27 -k RTR
h -t 15.172407665 -s 4 -d 3 -p DSR -e 76 -c 2 -a 0 -i 27 -k RTR
+ -t 15.174633665 -s 3 -d 0 -p DSR -e 76 -c 2 -a 0 -i 27 -k RTR 
- -t 15.174633665 -s 3 -d 0 -p DSR -e 76 -c 2 -a 0 -i 27 -k RTR
h -t 15.174633665 -s 3 -d 0 -p DSR -e 76 -c 2 -a 0 -i 27 -k RTR
+ -t 15.176858665 -s 0 -d 3 -p cbr -e 564 -c 2 -a 0 -i 0 -k RTR 
- -t 15.176858665 -s 0 -d 3 -p cbr -e 564 -c 2 -a 0 -i 0 -k RTR
h -t 15.176858665 -s 0 -d 3 -p cbr -e 564 -c 2 -a 0 -i 0 -k RTR
+ -t 15.183007665 -s 3 -d 4 -p cbr -e 564 -c 2 -a 0 -i 0 -k RTR 
- -t 15.183007665 -s 3 -d 4 -p cbr -e 564 -c 2 -a 0 -i 0 -k RTR
h -t 15.183007665 -s 3 -d 4 -p cbr -e 564 -c 2 -a 0 -i 0 -k RTR
+ -t 15.185099332 -s 23 -d 4 -p DSR -e 68 -c 2 -a 0 -i 24 -k RTR 
- -t 15.185099332 -s 23 -d 4 -p DSR -e 68 -c 2 -a 0 -i 24 -k RTR
h -t 15.185099332 -s 23 -d 4 -p DSR -e 68 -c 2 -a 0 -i 24 -k RTR
+ -t 15.187220665 -s 19 -d 23 -p DSR -e 68 -c 2 -a 0 -i 28 -k RTR 
- -t 15.187220665 -s 19 -d 23 -p DSR -e 68 -c 2 -a 0 -i 28 -k RTR
h -t 15.187220665 -s 19 -d 23 -p DSR -e 68 -c 2 -a 0 -i 28 -k RTR
+ -t 15.189323568 -s 4 -d 1 -p DSR -e 68 -c 2 -a 0 -i 24 -k RTR 
- -t 15.189323568 -s 4 -d 1 -p DSR -e 68 -c 2 -a 0 -i 24 -k RTR
h -t 15.189323568 -s 4 -d 1 -p DSR -e 68 -c 2 -a 0 -i 24 -k RTR
+ -t 15.189412104 -s 1 -d -1 -p cbr -e 512 -c 2 -a 0 -i 38 -k AGT 
- -t 15.189412104 -s 1 -d -1 -p cbr -e 512 -c 2 -a 0 -i 38 -k AGT
h -t 15.189412104 -s 1 -d -1 -p cbr -e 512 -c 2 -a 0 -i 38 -k AGT
+ -t 15.189412104 -s 1 -d 7 -p cbr -e 552 -c 2 -a 0 -i 38 -k RTR 
- -t 15.189412104 -s 1 -d 7 -p cbr -e 552 -c 2 -a 0 -i 38 -k RTR
h -t 15.189412104 -s 1 -d 7 -p cbr -e 552 -c 2 -a 0 -i 38 -k RTR
+ -t 15.197495313 -s 4 -d 10 -p cbr -e 564 -c 2 -a 0 -i 0 -k RTR 
- -t 15.197495313 -s 4 -d 10 -p cbr -e 564 -c 2 -a 0 -i 0 -k RTR
h -t 15.197495313 -s 4 -d 10 -p cbr -e 564 -c 2 -a 0 -i 0 -k RTR
+ -t 15.203629647 -s 7 -d 21 -p cbr -e 552 -c 2 -a 0 -i 38 -k RTR 
- -t 15.203629647 -s 7 -d 21 -p cbr -e 552 -c 2 -a 0 -i 38 -k RTR
h -t 15.203629647 -s 7 -d 21 -p cbr -e 552 -c 2 -a 0 -i 38 -k RTR
+ -t 15.206858665 -s 0 -d 3 -p cbr -e 564 -c 2 -a 0 -i 32 -k RTR 
- -t 15.206858665 -s 0 -d 3 -p cbr -e 564 -c 2 -a 0 -i 32 -k RTR
h -t 15.206858665 -s 0 -d 3 -p cbr -e 564 -c 2 -a 0 -i 32 -k RTR
+ -t 15.209839980 -s 10 -d 16 -p cbr -e 564 -c 2 -a 0 -i 0 -k RTR 
- -t 15.209839980 -s 10 -d 16 -p cbr -e 564 -c 2 -a 0 -i 0 -k RTR
h -t 15.209839980 -s 10 -d 16 -p cbr -e 564 -c 2 -a 0 -i 0 -k RTR
+ -t 15.214378402 -s 0 -d -1 -p cbr -e 512 -c 2 -a 0 -i 39 -k AGT 
- -t 15.214378402 -s 0 -d -1 -p cbr -e 512 -c 2 -a 0 -i 39 -k AGT
h -t 15.214378402 -s 0 -d -1 -p cbr -e 512 -c 2 -a 0 -i 39 -k AGT
+ -t 15.214378402 -s 0 -d 3 -p cbr -e 564 -c 2 -a 0 -i 39 -k RTR 
- -t 15.214378402 -s 0 -d 3 -p cbr -e 564 -c 2 -a 0 -i 39 -k RTR
h -t 15.214378402 -s 0 -d 3 -p cbr -e 564 -c 2 -a 0 -i 39 -k RTR
r -t 15.215774549 -s 21 -d 21 -p cbr -e 512 -c 2 -a 0 -i 38 -k AGT
+ -t 15.223227021 -s 16 -d 19 -p cbr -e 564 -c 2 -a 0 -i 0 -k RTR 
- -t 15.223227021 -s 16 -d 19 -p cbr -e 564 -c 2 -a 0 -i 0 -k RTR
h -t 15.223227021 -s 16 -d 19 -p cbr -e 564 -c 2 -a 0 -i 0 -k RTR
+ -t 15.224860086 -s 19 -d 21 -p DSR -e 68 -c 2 -a 0 -i 40 -k RTR 
- -t 15.224860086 -s 19 -d 21 -p DSR -e 68 -c 2 -a 0 -i 40 -k RTR
h -t 15.224860086 -s 19 -d 21 -p DSR -e 68 -c 2 -a 0 -i 40 -k RTR
+ -t 15.225416354 -s 15 -d 16 -p DSR -e 84 -c 2 -a 0 -i 35 -k RTR 
- -t 15.225416354 -s 15 -d 16 -p DSR -e 84 -c 2 -a 0 -i 35 -k RTR
h -t 15.225416354 -s 15 -d 16 -p DSR -e 84 -c 2 -a 0 -i 35 -k RTR
r -t 15.231486021 -s 19 -d 19 -p cbr -e 512 -c 2 -a 0 -i 0 -k AGT
+ -t 15.233607021 -s 21 -d 23 -p DSR -e 68 -c 2 -a 0 -i 40 -k RTR 
- -t 15.233607021 -s 21 -d 23 -p DSR -e 68 -c 2 -a 0 -i 40 -k RTR
h -t 15.233607021 -s 21 -d 23 -p DSR -e 68 -c 2 -a 0 -i 40 -k RTR
+ -t 15.235501021 -s 25 -d 1 -p DSR -e 52 -c 2 -a 0 -i 23 -k RTR 
- -t 15.235501021 -s 25 -d 1 -p DSR -e 52 -c 2 -a 0 -i 23 -k RTR
h -t 15.235501021 -s 25 -d 1 -p DSR -e 52 -c 2 -a 0 -i 23 -k RTR
+ -t 15.239702204 -s 24 -d -1 -p cbr -e 512 -c 2 -a 0 -i 41 -k AGT 
- -t 15.239702204 -s 24 -d -1 -p cbr -e 512 -c 2 -a 0 -i 41 -k AGT
h -t 15.239702204 -s 24 -d -1 -p cbr -e 512 -c 2 -a 0 -i 41 -k AGT
+ -t 15.239702204 -s 24 -d 25 -p cbr -e 548 -c 2 -a 0 -i 41 -k RTR 
- -t 15.239702204 -s 24 -d 25 -p cbr -e 548 -c 2 -a 0 -i 41 -k RTR
h -t 15.239702204 -s 24 -d 25 -p cbr -e 548 -c 2 -a 0 -i 41 -k RTR
+ -t 15.243860335 -s 4 -d 0 -p DSR -e 56 -c 2 -a 0 -i 42 -k RTR 
- -t 15.243860335 -s 4 -d 0 -p DSR -e 56 -c 2 -a 0 -i 42 -k RTR
h -t 15.243860335 -s 4 -d 0 -p DSR -e 56 -c 2 -a 0 -i 42 -k RTR
+ -t 15.243884923 -s 3 -d 4 -p cbr -e 564 -c 2 -a 0 -i 32 -k RTR 
- -t 15.243884923 -s 3 -d 4 -p cbr -e 564 -c 2 -a 0 -i 32 -k RTR
h -t 15.243884923 -s 3 -d 4 -p cbr -e 564 -c 2 -a 0 -i 32 -k RTR
+ -t 15.252236238 -s 4 -d 0 -p DSR -e 56 -c 2 -a 0 -i 43 -k RTR 
- -t 15.252236238 -s 4 -d 0 -p DSR -e 56 -c 2 -a 0 -i 43 -k RTR
h -t 15.252236238 -s 4 -d 0 -p DSR -e 56 -c 2 -a 0 -i 43 -k RTR
+ -t 15.252260826 -s 3 -d 4 -p cbr -e 564 -c 2 -a 0 -i 39 -k RTR 
- -t 15.252260826 -s 3 -d 4 -p cbr -e 564 -c 2 -a 0 -i 39 -k RTR
h -t 15.252260826 -s 3 -d 4 -p cbr -e 564 -c 2 -a 0 -i 39 -k RTR
+ -t 15.258310826 -s 4 -d 10 -p cbr -e 564 -c 2 -a 0 -i 32 -k RTR 
- -t 15.258310826 -s 4 -d 10 -p cbr -e 564 -c 2 -a 0 -i 32 -k RTR
h -t 15.258310826 -s 4 -d 10 -p cbr -e 564 -c 2 -a 0 -i 32 -k RTR
+ -t 15.262040822 -s 1 -d -1 -p cbr -e 512 -c 2 -a 0 -i 44 -k AGT 
- -t 15.262040822 -s 1 -d -1 -p cbr -e 512 -c 2 -a 0 -i 44 -k AGT
h -t 15.262040822 -s 1 -d -1 -p cbr -e 512 -c 2 -a 0 -i 44 -k AGT
+ -t 15.262040822 -s 1 -d 7 -p cbr -e 552 -c 2 -a 0 -i 44 -k RTR 
- -t 15.262040822 -s 1 -d 7 -p cbr -e 552 -c 2 -a 0 -i 44 -k RTR
h -t 15.262040822 -s 1 -d 7 -p cbr -e 552 -c 2 -a 0 -i 44 -k RTR
+ -t 15.266587396 -s 4 -d 10 -p cbr -e 564 -c 2 -a 0 -i 39 -k RTR 
- -t 15.266587396 -s 4 -d 10 -p cbr -e 564 -c 2 -a 0 -i 39 -k RTR
h -t 15.266587396 -s 4 -d 10 -p cbr -e 564 -c 2 -a 0 -i 39 -k RTR
+ -t 15.270362417 -s 23 -d 3 -p DSR -e 68 -c 2 -a 0 -i 40 -k RTR 
- -t 15.270362417 -s 23 -d 3 -p DSR -e 68 -c 2 -a 0 -i 40 -k RTR
h -t 15.270362417 -s 23 -d 3 -p DSR -e 68 -c 2 -a 0 -i 40 -k RTR
+ -t 15.272593162 -s 16 -d 10 -p DSR -e 84 -c 2 -a 0 -i 35 -k RTR 
- -t 15.272593162 -s 16 -d 10 -p DSR -e 84 -c 2 -a 0 -i 35 -k RTR
h -t 15.272593162 -s 16 -d 10 -p DSR -e 84 -c 2 -a 0 -i 35 -k RTR
+ -t 15.274551870 -s 6 -d 4 -p DSR -e 60 -c 2 -a 0 -i 21 -k RTR 
- -t 15.274551870 -s 6 -d 4 -p DSR -e 60 -c 2 -a 0 -i 21 -k RTR
h -t 15.274551870 -s 6 -d 4 -p DSR -e 60 -c 2 -a 0 -i 21 -k RTR
+ -t 15.276610106 -s 4 -d 1 -p DSR -e 60 -c 2 -a 0 -i 21 -k RTR 
- -t 15.276610106 -s 4 -d 1 -p DSR -e 60 -c 2 -a 0 -i 21 -k RTR
h -t 15.276610106 -s 4 -d 1 -p DSR -e 60 -c 2 -a 0 -i 21 -k RTR
+ -t 15.282600106 -s 10 -d 16 -p cbr -e 564 -c 2 -a 0 -i 32 -k RTR 
- -t 15.282600106 -s 10 -d 16 -p cbr -e 564 -c 2 -a 0 -i 32 -k RTR
h -t 15.282600106 -s 10 -d 16 -p cbr -e 564 -c 2 -a 0 -i 32 -k RTR
+ -t 15.285719754 -s 3 -d 0 -p DSR -e 68 -c 2 -a 0 -i 40 -k RTR 
- -t 15.285719754 -s 3 -d 0 -p DSR -e 68 -c 2 -a 0 -i 40 -k RTR
h -t 15.285719754 -s 3 -d 0 -p DSR -e 68 -c 2 -a 0 -i 40 -k RTR
r -t 15.293780166 -s 25 -d 25 -p cbr -e 512 -c 2 -a 0 -i 41 -k AGT
+ -t 15.299745716 -s 19 -d 10 -p DSR -e 68 -c 2 -a 0 -i 45 -k RTR 
- -t 15.299745716 -s 19 -d 10 -p DSR -e 68 -c 2 -a 0 -i 45 -k RTR
h -t 15.299745716 -s 19 -d 10 -p DSR -e 68 -c 2 -a 0 -i 45 -k RTR
+ -t 15.299770637 -s 16 -d 19 -p cbr -e 564 -c 2 -a 0 -i 32 -k RTR 
- -t 15.299770637 -s 16 -d 19 -p cbr -e 564 -c 2 -a 0 -i 32 -k RTR
h -t 15.299770637 -s 16 -d 19 -p cbr -e 564 -c 2 -a 0 -i 32 -k RTR
+ -t 15.301953345 -s 18 -d 22 -p DSR -e 68 -c 2 -a 0 -i 20 -k RTR 
- -t 15.301953345 -s 18 -d 22 -p DSR -e 68 -c 2 -a 0 -i 20 -k RTR
h -t 15.301953345 -s 18 -d 22 -p DSR -e 68 -c 2 -a 0 -i 20 -k RTR
+ -t 15.303995345 -s 22 -d 4 -p DSR -e 68 -c 2 -a 0 -i 20 -k RTR 
- -t 15.303995345 -s 22 -d 4 -p DSR -e 68 -c 2 -a 0 -i 20 -k RTR
h -t 15.303995345 -s 22 -d 4 -p DSR -e 68 -c 2 -a 0 -i 20 -k RTR
+ -t 15.306014090 -s 20 -d 24 -p DSR -e 60 -c 2 -a 0 -i 18 -k RTR 
- -t 15.306014090 -s 20 -d 24 -p DSR -e 60 -c 2 -a 0 -i 18 -k RTR
h -t 15.306014090 -s 20 -d 24 -p DSR -e 60 -c 2 -a 0 -i 18 -k RTR
+ -t 15.308236660 -s 4 -d 1 -p DSR -e 68 -c 2 -a 0 -i 20 -k RTR 
- -t 15.308236660 -s 4 -d 1 -p DSR -e 68 -c 2 -a 0 -i 20 -k RTR
h -t 15.308236660 -s 4 -d 1 -p DSR -e 68 -c 2 -a 0 -i 20 -k RTR
+ -t 15.314200968 -s 7 -d 21 -p cbr -e 552 -c 2 -a 0 -i 44 -k RTR 
- -t 15.314200968 -s 7 -d 21 -p cbr -e 552 -c 2 -a 0 -i 44 -k RTR
h -t 15.314200968 -s 7 -d 21 -p cbr -e 552 -c 2 -a 0 -i 44 -k RTR
+ -t 15.316229676 -s 24 -d 1 -p DSR -e 60 -c 2 -a 0 -i 18 -k RTR 
- -t 15.316229676 -s 24 -d 1 -p DSR -e 60 -c 2 -a 0 -i 18 -k RTR
h -t 15.316229676 -s 24 -d 1 -p DSR -e 60 -c 2 -a 0 -i 18 -k RTR
+ -t 15.322290064 -s 10 -d 16 -p cbr -e 564 -c 2 -a 0 -i 39 -k RTR 