Sconfig 0.00000 tap: on snoop: rts? on errs? on
Sconfig 0.00000 salvage: on !bd replies? on
Sconfig 0.00000 grat error: on grat reply: on
Sconfig 0.00000 $reply for props: on ring 0 search: on
Sconfig 0.00000 using MOBICACHE
s 15.000000000 _0_ AGT  --- 0 cbr 512 [0 0 0 0] ------- [0:0 13:0 32 0] [0] 0 0
r 15.000000000 _0_ RTR  --- 0 cbr 512 [0 0 0 0] ------- [0:0 13:0 32 0] [0] 0 0
s 15.004896941 _0_ RTR  --- 1 DSR 32 [0 0 0 0] ------- [0:255 13:255 32 0] 1 [1 1] [0 1 0 0->0] [0 0 0 0->0]
r 15.006249275 _3_ RTR  --- 1 DSR 32 [0 ffffffff 0 800] ------- [0:255 13:255 32 0] 1 [1 1] [0 1 0 0->0] [0 0 0 0->0]
r 15.006249608 _6_ RTR  --- 1 DSR 32 [0 ffffffff 0 800] ------- [0:255 13:255 32 0] 1 [1 1] [0 1 0 0->0] [0 0 0 0->0]
r 15.006249608 _1_ RTR  --- 1 DSR 32 [0 ffffffff 0 800] ------- [0:255 13:255 32 0] 1 [1 1] [0 1 0 0->0] [0 0 0 0->0]
r 15.006249687 _4_ RTR  --- 1 DSR 32 [0 ffffffff 0 800] ------- [0:255 13:255 32 0] 1 [1 1] [0 1 0 0->0] [0 0 0 0->0]
s 15.028381329 _0_ AGT  --- 3 cbr 512 [0 0 0 0] ------- [0:0 13:0 32 0] [1] 0 0
r 15.028381329 _0_ RTR  --- 3 cbr 512 [0 0 0 0] ------- [0:0 13:0 32 0] [1] 0 0
s 15.083122002 _0_ RTR  --- 5 DSR 32 [0 0 0 0] ------- [0:255 13:255 32 0] 1 [1 2] [0 2 0 0->16] [0 0 0 0->0]
r 15.084414335 _3_ RTR  --- 5 DSR 32 [0 ffffffff 0 800] ------- [0:255 13:255 32 0] 1 [1 2] [0 2 0 0->16] [0 0 0 0->0]
r 15.084414669 _6_ RTR  --- 5 DSR 32 [0 ffffffff 0 800] ------- [0:255 13:255 32 0] 1 [1 2] [0 2 0 0->16] [0 0 0 0->0]
r 15.084414669 _1_ RTR  --- 5 DSR 32 [0 ffffffff 0 800] ------- [0:255 13:255 32 0] 1 [1 2] [0 2 0 0->16] [0 0 0 0->0]
r 15.084414747 _4_ RTR  --- 5 DSR 32 [0 ffffffff 0 800] ------- [0:255 13:255 32 0] 1 [1 2] [0 2 0 0->16] [0 0 0 0->0]
f 15.085399643 _4_ RTR  --- 5 DSR 48 [0 ffffffff 0 800] ------- [0:255 13:255 32 0] 2 [1 2] [0 2 0 0->16] [0 0 0 0->0]
r 15.086339976 _1_ RTR  --- 5 DSR 48 [0 ffffffff 4 800] ------- [0:255 13:255 32 0] 2 [1 2] [0 2 0 0->16] [0 0 0 0->0]
r 15.086339976 _7_ RTR  --- 5 DSR 48 [0 ffffffff 4 800] ------- [0:255 13:255 32 0] 2 [1 2] [0 2 0 0->16] [0 0 0 0->0]
r 15.086340309 _3_ RTR  --- 5 DSR 48 [0 ffffffff 4 800] ------- [0:255 13:255 32 0] 2 [1 2] [0 2 0 0->16] [0 0 0 0->0]
r 15.086340309 _10_ RTR  --- 5 DSR 48 [0 ffffffff 4 800] ------- [0:255 13:255 32 0] 2 [1 2] [0 2 0 0->16] [0 0 0 0->0]
r 15.086340309 _5_ RTR  --- 5 DSR 48 [0 ffffffff 4 800] ------- [0:255 13:255 32 0] 2 [1 2] [0 2 0 0->16] [0 0 0 0->0]
r 15.086340388 _6_ RTR  --- 5 DSR 48 [0 ffffffff 4 800] ------- [0:255 13:255 32 0] 2 [1 2] [0 2 0 0->16] [0 0 0 0->0]
r 15.086340388 _0_ RTR  --- 5 DSR 48 [0 ffffffff 4 800] ------- [0:255 13:255 32 0] 2 [1 2] [0 2 0 0->16] [0 0 0 0->0]
r 15.086340388 _2_ RTR  --- 5 DSR 48 [0 ffffffff 4 800] ------- [0:255 13:255 32 0] 2 [1 2] [0 2 0 0->16] [0 0 0 0->0]
r 15.086340388 _8_ RTR  --- 5 DSR 48 [0 ffffffff 4 800] ------- [0:255 13:255 32 0] 2 [1 2] [0 2 0 0->16] [0 0 0 0->0]
f 15.087203431 _3_ RTR  --- 5 DSR 48 [0 ffffffff 0 800] ------- [0:255 13:255 32 0] 2 [1 2] [0 2 0 0->16] [0 0 0 0->0]
f 15.087527875 _6_ RTR  --- 5 DSR 48 [0 ffffffff 0 800] ------- [0:255 13:255 32 0] 2 [1 2] [0 2 0 0->16] [0 0 0 0->0]
f 15.087676585 _8_ RTR  --- 5 DSR 68 [0 ffffffff 4 800] ------- [0:255 13:255 32 0] 3 [1 2] [0 2 0 0->16] [0 0 0 0->0]
r 15.088143764 _0_ RTR  --- 5 DSR 48 [0 ffffffff 3 800] ------- [0:255 13:255 32 0] 2 [1 2] [0 2 0 0->16] [0 0 0 0->0]
r 15.088143764 _6_ RTR  --- 5 DSR 48 [0 ffffffff 3 800] ------- [0:255 13:255 32 0] 2 [1 2] [0 2 0 0->16] [0 0 0 0->0]
r 15.088144098 _9_ RTR  --- 5 DSR 48 [0 ffffffff 3 800] ------- [0:255 13:255 32 0] 2 [1 2] [0 2 0 0->16] [0 0 0 0->0]
r 15.088144098 _4_ RTR  --- 5 DSR 48 [0 ffffffff 3 800] ------- [0:255 13:255 32 0] 2 [1 2] [0 2 0 0->16] [0 0 0 0->0]
r 15.088144176 _1_ RTR  --- 5 DSR 48 [0 ffffffff 3 800] ------- [0:255 13:255 32 0] 2 [1 2] [0 2 0 0->16] [0 0 0 0->0]
r 15.088144176 _7_ RTR  --- 5 DSR 48 [0 ffffffff 3 800] ------- [0:255 13:255 32 0] 2 [1 2] [0 2 0 0->16] [0 0 0 0->0]
r 15.089314098 _3_ RTR  --- 5 DSR 48 [0 ffffffff 6 800] ------- [0:255 13:255 32 0] 2 [1 2] [0 2 0 0->16] [0 0 0 0->0]
r 15.089314098 _9_ RTR  --- 5 DSR 48 [0 ffffffff 6 800] ------- [0:255 13:255 32 0] 2 [1 2] [0 2 0 0->16] [0 0 0 0->0]
r 15.089314431 _0_ RTR  --- 5 DSR 48 [0 ffffffff 6 800] ------- [0:255 13:255 32 0] 2 [1 2] [0 2 0 0->16] [0 0 0 0->0]
r 15.089314431 _12_ RTR  --- 5 DSR 48 [0 ffffffff 6 800] ------- [0:255 13:255 32 0] 2 [1 2] [0 2 0 0->16] [0 0 0 0->0]
r 15.089314431 _7_ RTR  --- 5 DSR 48 [0 ffffffff 6 800] ------- [0:255 13:255 32 0] 2 [1 2] [0 2 0 0->16] [0 0 0 0->0]
r 15.089314510 _4_ RTR  --- 5 DSR 48 [0 ffffffff 6 800] ------- [0:255 13:255 32 0] 2 [1 2] [0 2 0 0->16] [0 0 0 0->0]
r 15.089314510 _10_ RTR  --- 5 DSR 48 [0 ffffffff 6 800] ------- [0:255 13:255 32 0] 2 [1 2] [0 2 0 0->16] [0 0 0 0->0]
f 15.089986698 _12_ RTR  --- 5 DSR 68 [0 ffffffff 6 800] ------- [0:255 13:255 32 0] 3 [1 2] [0 2 0 0->16] [0 0 0 0->0]
f 15.090535126 _2_ RTR  --- 5 DSR 68 [0 ffffffff 4 800] ------- [0:255 13:255 32 0] 3 [1 2] [0 2 0 0->16] [0 0 0 0->0]
r 15.090769431 _5_ RTR  --- 5 DSR 68 [0 ffffffff 8 800] ------- [0:255 13:255 32 0] 3 [1 2] [0 2 0 0->16] [0 0 0 0->0]
r 15.090769431 _11_ RTR  --- 5 DSR 68 [0 ffffffff 8 800] ------- [0:255 13:255 32 0] 3 [1 2] [0 2 0 0->16] [0 0 0 0->0]
r 15.090769764 _2_ RTR  --- 5 DSR 68 [0 ffffffff 8 800] ------- [0:255 13:255 32 0] 3 [1 2] [0 2 0 0->16] [0 0 0 0->0]
r 15.090769764 _7_ RTR  --- 5 DSR 68 [0 ffffffff 8 800] ------- [0:255 13:255 32 0] 3 [1 2] [0 2 0 0->16] [0 0 0 0->0]
r 15.090769764 _14_ RTR  --- 5 DSR 68 [0 ffffffff 8 800] ------- [0:255 13:255 32 0] 3 [1 2] [0 2 0 0->16] [0 0 0 0->0]
r 15.090769843 _10_ RTR  --- 5 DSR 68 [0 ffffffff 8 800] ------- [0:255 13:255 32 0] 3 [1 2] [0 2 0 0->16] [0 0 0 0->0]
r 15.090769843 _4_ RTR  --- 5 DSR 68 [0 ffffffff 8 800] ------- [0:255 13:255 32 0] 3 [1 2] [0 2 0 0->16] [0 0 0 0->0]
f 15.091450848 _10_ RTR  --- 5 DSR 68 [0 ffffffff 4 800] ------- [0:255 13:255 32 0] 3 [1 2] [0 2 0 0->16] [0 0 0 0->0]
s 15.091929494 _0_ AGT  --- 7 cbr 512 [0 0 0 0] ------- [0:0 13:0 32 0] [2] 0 0
r 15.091929494 _0_ RTR  --- 7 cbr 512 [0 0 0 0] ------- [0:0 13:0 32 0] [2] 0 0
r 15.092224922 _9_ RTR  --- 5 DSR 68 [0 ffffffff c 800] ------- [0:255 13:255 32 0] 3 [1 2] [0 2 0 0->16] [0 0 0 0->0]
r 15.092225255 _6_ RTR  --- 5 DSR 68 [0 ffffffff c 800] ------- [0:255 13:255 32 0] 3 [1 2] [0 2 0 0->16] [0 0 0 0->0]
r 15.092225255 _13_ RTR  --- 5 DSR 68 [0 ffffffff c 800] ------- [0:255 13:255 32 0] 3 [1 2] [0 2 0 0->16] [0 0 0 0->0]
f 15.092457915 _1_ RTR  --- 5 DSR 48 [0 ffffffff 0 800] ------- [0:255 13:255 32 0] 2 [1 2] [0 2 0 0->16] [0 0 0 0->0]
r 15.093795300 _7_ RTR  --- 5 DSR 68 [0 ffffffff a 800] ------- [0:255 13:255 32 0] 3 [1 2] [0 2 0 0->16] [0 0 0 0->0]
r 15.093795300 _13_ RTR  --- 5 DSR 68 [0 ffffffff a 800] ------- [0:255 13:255 32 0] 3 [1 2] [0 2 0 0->16] [0 0 0 0->0]
r 15.093795633 _4_ RTR  --- 5 DSR 68 [0 ffffffff a 800] ------- [0:255 13:255 32 0] 3 [1 2] [0 2 0 0->16] [0 0 0 0->0]
r 15.093795633 _9_ RTR  --- 5 DSR 68 [0 ffffffff a 800] ------- [0:255 13:255 32 0] 3 [1 2] [0 2 0 0->16] [0 0 0 0->0]
r 15.093795633 _11_ RTR  --- 5 DSR 68 [0 ffffffff a 800] ------- [0:255 13:255 32 0] 3 [1 2] [0 2 0 0->16] [0 0 0 0->0]
r 15.093795712 _12_ RTR  --- 5 DSR 68 [0 ffffffff a 800] ------- [0:255 13:255 32 0] 3 [1 2] [0 2 0 0->16] [0 0 0 0->0]
r 15.093795712 _6_ RTR  --- 5 DSR 68 [0 ffffffff a 800] ------- [0:255 13:255 32 0] 3 [1 2] [0 2 0 0->16] [0 0 0 0->0]
r 15.093795712 _8_ RTR  --- 5 DSR 68 [0 ffffffff a 800] ------- [0:255 13:255 32 0] 3 [1 2] [0 2 0 0->16] [0 0 0 0->0]
r 15.093795712 _14_ RTR  --- 5 DSR 68 [0 ffffffff a 800] ------- [0:255 13:255 32 0] 3 [1 2] [0 2 0 0->16] [0 0 0 0->0]
f 15.093840303 _9_ RTR  --- 5 DSR 68 [0 ffffffff 3 800] ------- [0:255 13:255 32 0] 3 [1 2] [0 2 0 0->16] [0 0 0 0->0]
r 15.095060637 _6_ RTR  --- 5 DSR 68 [0 ffffffff 9 800] ------- [0:255 13:255 32 0] 3 [1 2] [0 2 0 0->16] [0 0 0 0->0]
r 15.095060637 _12_ RTR  --- 5 DSR 68 [0 ffffffff 9 800] ------- [0:255 13:255 32 0] 3 [1 2] [0 2 0 0->16] [0 0 0 0->0]
r 15.095060970 _3_ RTR  --- 5 DSR 68 [0 ffffffff 9 800] ------- [0:255 13:255 32 0] 3 [1 2] [0 2 0 0->16] [0 0 0 0->0]
r 15.095060970 _10_ RTR  --- 5 DSR 68 [0 ffffffff 9 800] ------- [0:255 13:255 32 0] 3 [1 2] [0 2 0 0->16] [0 0 0 0->0]
r 15.095061049 _7_ RTR  --- 5 DSR 68 [0 ffffffff 9 800] ------- [0:255 13:255 32 0] 3 [1 2] [0 2 0 0->16] [0 0 0 0->0]
r 15.095061049 _13_ RTR  --- 5 DSR 68 [0 ffffffff 9 800] ------- [0:255 13:255 32 0] 3 [1 2] [0 2 0 0->16] [0 0 0 0->0]
f 15.095838408 _5_ RTR  --- 5 DSR 68 [0 ffffffff 4 800] ------- [0:255 13:255 32 0] 3 [1 2] [0 2 0 0->16] [0 0 0 0->0]
f 15.096032328 _7_ RTR  --- 5 DSR 68 [0 ffffffff 4 800] ------- [0:255 13:255 32 0] 3 [1 2] [0 2 0 0->16] [0 0 0 0->0]
r 15.096535839 _4_ RTR  --- 5 DSR 48 [0 ffffffff 1 800] ------- [0:255 13:255 32 0] 2 [1 2] [0 2 0 0->16] [0 0 0 0->0]
r 15.096536172 _0_ RTR  --- 5 DSR 48 [0 ffffffff 1 800] ------- [0:255 13:255 32 0] 2 [1 2] [0 2 0 0->16] [0 0 0 0->0]
r 15.096536172 _7_ RTR  --- 5 DSR 48 [0 ffffffff 1 800] ------- [0:255 13:255 32 0] 2 [1 2] [0 2 0 0->16] [0 0 0 0->0]
r 15.096536172 _2_ RTR  --- 5 DSR 48 [0 ffffffff 1 800] ------- [0:255 13:255 32 0] 2 [1 2] [0 2 0 0->16] [0 0 0 0->0]
r 15.096536251 _3_ RTR  --- 5 DSR 48 [0 ffffffff 1 800] ------- [0:255 13:255 32 0] 2 [1 2] [0 2 0 0->16] [0 0 0 0->0]
r 15.096536251 _5_ RTR  --- 5 DSR 48 [0 ffffffff 1 800] ------- [0:255 13:255 32 0] 2 [1 2] [0 2 0 0->16] [0 0 0 0->0]
s 15.096779535 _13_ RTR  --- 11 DSR 60 [0 0 0 0] ------- [13:255 0:255 254 9] 4 [0 2] [1 2 4 0->13] [0 0 0 0->0]
r 15.097646505 _4_ RTR  --- 5 DSR 68 [0 ffffffff 7 800] ------- [0:255 13:255 32 0] 3 [1 2] [0 2 0 0->16] [0 0 0 0->0]
r 15.097646505 _10_ RTR  --- 5 DSR 68 [0 ffffffff 7 800] ------- [0:255 13:255 32 0] 3 [1 2] [0 2 0 0->16] [0 0 0 0->0]
r 15.097646839 _1_ RTR  --- 5 DSR 68 [0 ffffffff 7 800] ------- [0:255 13:255 32 0] 3 [1 2] [0 2 0 0->16] [0 0 0 0->0]
r 15.097646839 _6_ RTR  --- 5 DSR 68 [0 ffffffff 7 800] ------- [0:255 13:255 32 0] 3 [1 2] [0 2 0 0->16] [0 0 0 0->0]
r 15.097646839 _13_ RTR  --- 5 DSR 68 [0 ffffffff 7 800] ------- [0:255 13:255 32 0] 3 [1 2] [0 2 0 0->16] [0 0 0 0->0]
r 15.097646839 _8_ RTR  --- 5 DSR 68 [0 ffffffff 7 800] ------- [0:255 13:255 32 0] 3 [1 2] [0 2 0 0->16] [0 0 0 0->0]
r 15.097646917 _9_ RTR  --- 5 DSR 68 [0 ffffffff 7 800] ------- [0:255 13:255 32 0] 3 [1 2] [0 2 0 0->16] [0 0 0 0->0]
r 15.097646917 _3_ RTR  --- 5 DSR 68 [0 ffffffff 7 800] ------- [0:255 13:255 32 0] 3 [1 2] [0 2 0 0->16] [0 0 0 0->0]
r 15.097646917 _5_ RTR  --- 5 DSR 68 [0 ffffffff 7 800] ------- [0:255 13:255 32 0] 3 [1 2] [0 2 0 0->16] [0 0 0 0->0]
r 15.097646917 _11_ RTR  --- 5 DSR 68 [0 ffffffff 7 800] ------- [0:255 13:255 32 0] 3 [1 2] [0 2 0 0->16] [0 0 0 0->0]
s 15.097836081 _13_ RTR  --- 10 DSR 60 [0 0 0 0] ------- [13:255 0:255 254 10] 4 [0 2] [1 2 4 0->13] [0 0 0 0->0]
f 15.098448639 _11_ RTR  --- 5 DSR 92 [0 ffffffff 8 800] ------- [0:255 13:255 32 0] 4 [1 2] [0 2 0 0->16] [0 0 0 0->0]
r 15.099451075 _9_ RTR  --- 11 DSR 60 [13a 9 d 800] ------- [13:255 0:255 254 9] 4 [0 2] [1 2 4 0->13] [0 0 0 0->0]
f 15.099451075 _9_ RTR  --- 11 DSR 60 [13a 9 d 800] ------- [13:255 0:255 253 3] 4 [0 2] [1 2 4 0->13] [0 0 0 0->0]
f 15.099922012 _14_ RTR  --- 5 DSR 92 [0 ffffffff 8 800] ------- [0:255 13:255 32 0] 4 [1 2] [0 2 0 0->16] [0 0 0 0->0]
s 15.100236576 _13_ RTR  --- 9 DSR 60 [0 0 0 0] ------- [13:255 0:255 254 12] 4 [0 2] [1 2 4 0->13] [0 0 0 0->0]
r 15.101688820 _10_ RTR  --- 10 DSR 60 [13a a d 800] ------- [13:255 0:255 254 10] 4 [0 2] [1 2 4 0->13] [0 0 0 0->0]
f 15.101688820 _10_ RTR  --- 10 DSR 60 [13a a d 800] ------- [13:255 0:255 253 4] 4 [0 2] [1 2 4 0->13] [0 0 0 0->0]
r 15.103325820 _8_ RTR  --- 5 DSR 92 [0 ffffffff b 800] ------- [0:255 13:255 32 0] 4 [1 2] [0 2 0 0->16] [0 0 0 0->0]
r 15.103326153 _5_ RTR  --- 5 DSR 92 [0 ffffffff b 800] ------- [0:255 13:255 32 0] 4 [1 2] [0 2 0 0->16] [0 0 0 0->0]
r 15.103326232 _13_ RTR  --- 5 DSR 92 [0 ffffffff b 800] ------- [0:255 13:255 32 0] 4 [1 2] [0 2 0 0->16] [0 0 0 0->0]
r 15.104656487 _2_ RTR  --- 5 DSR 68 [0 ffffffff 5 800] ------- [0:255 13:255 32 0] 3 [1 2] [0 2 0 0->16] [0 0 0 0->0]
r 15.104656487 _8_ RTR  --- 5 DSR 68 [0 ffffffff 5 800] ------- [0:255 13:255 32 0] 3 [1 2] [0 2 0 0->16] [0 0 0 0->0]
r 15.104656820 _4_ RTR  --- 5 DSR 68 [0 ffffffff 5 800] ------- [0:255 13:255 32 0] 3 [1 2] [0 2 0 0->16] [0 0 0 0->0]
r 15.104656820 _11_ RTR  --- 5 DSR 68 [0 ffffffff 5 800] ------- [0:255 13:255 32 0] 3 [1 2] [0 2 0 0->16] [0 0 0 0->0]
r 15.104656899 _7_ RTR  --- 5 DSR 68 [0 ffffffff 5 800] ------- [0:255 13:255 32 0] 3 [1 2] [0 2 0 0->16] [0 0 0 0->0]
r 15.104656899 _1_ RTR  --- 5 DSR 68 [0 ffffffff 5 800] ------- [0:255 13:255 32 0] 3 [1 2] [0 2 0 0->16] [0 0 0 0->0]
s 15.106431059 _13_ RTR  --- 12 DSR 60 [0 0 0 0] ------- [13:255 0:255 254 7] 4 [0 2] [1 2 4 0->13] [0 0 0 0->0]
r 15.106665644 _3_ RTR  --- 11 DSR 60 [13a 3 9 800] ------- [13:255 0:255 253 3] 4 [0 2] [1 2 4 0->13] [0 0 0 0->0]
f 15.106665644 _3_ RTR  --- 11 DSR 60 [13a 3 9 800] ------- [13:255 0:255 252 0] 4 [0 2] [1 2 4 0->13] [0 0 0 0->0]
r 15.109002644 _0_ RTR  --- 11 DSR 60 [13a 0 3 800] ------- [13:255 0:255 252 0] 4 [0 2] [1 2 4 0->13] [0 0 0 0->0]
SFESTs 15.109002644 _0_ 0 [0 -> 13] 1(1) to 3 [0 |3 9 13 ]
SFESTs 15.109002644 _0_ 3 [0 -> 13] 1(1) to 3 [0 |3 9 13 ]
SFESTs 15.109002644 _0_ 7 [0 -> 13] 1(1) to 3 [0 |3 9 13 ]
s 15.109002644 _0_ RTR  --- 0 cbr 556 [0 0 0 0] ------- [0:0 13:0 32 3] [0] 0 0
r 15.110630311 _11_ RTR  --- 5 DSR 92 [0 ffffffff e 800] ------- [0:255 13:255 32 0] 4 [1 2] [0 2 0 0->16] [0 0 0 0->0]
r 15.110630644 _8_ RTR  --- 5 DSR 92 [0 ffffffff e 800] ------- [0:255 13:255 32 0] 4 [1 2] [0 2 0 0->16] [0 0 0 0->0]
r 15.110630644 _13_ RTR  --- 5 DSR 92 [0 ffffffff e 800] ------- [0:255 13:255 32 0] 4 [1 2] [0 2 0 0->16] [0 0 0 0->0]
s 15.111571321 _13_ RTR  --- 13 DSR 68 [0 0 0 0] ------- [13:255 0:255 254 11] 5 [0 2] [1 2 5 0->13] [0 0 0 0->0]
s 15.112155297 _13_ RTR  --- 14 DSR 68 [0 0 0 0] ------- [13:255 0:255 254 14] 5 [0 2] [1 2 5 0->13] [0 0 0 0->0]
r 15.112514644 _12_ RTR  --- 9 DSR 60 [13a c d 800] ------- [13:255 0:255 254 12] 4 [0 2] [1 2 4 0->13] [0 0 0 0->0]
f 15.112514644 _12_ RTR  --- 9 DSR 60 [13a c d 800] ------- [13:255 0:255 253 6] 4 [0 2] [1 2 4 0->13] [0 0 0 0->0]
r 15.114753389 _4_ RTR  --- 10 DSR 60 [13a 4 a 800] ------- [13:255 0:255 253 4] 4 [0 2] [1 2 4 0->13] [0 0 0 0->0]
f 15.114753389 _4_ RTR  --- 10 DSR 60 [13a 4 a 800] ------- [13:255 0:255 252 0] 4 [0 2] [1 2 4 0->13] [0 0 0 0->0]
r 15.117031625 _0_ RTR  --- 10 DSR 60 [13a 0 4 800] ------- [13:255 0:255 252 0] 4 [0 2] [1 2 4 0->13] [0 0 0 0->0]
r 15.123196625 _3_ RTR  --- 0 cbr 556 [13a 3 0 800] ------- [0:0 13:0 32 3] [0] 1 0
f 15.123196625 _3_ RTR  --- 0 cbr 556 [13a 3 0 800] ------- [0:0 13:0 31 9] [0] 1 0
r 15.125583827 _14_ RTR  --- 14 DSR 68 [13a e d 800] ------- [13:255 0:255 254 14] 5 [0 2] [1 2 5 0->13] [0 0 0 0->0]
f 15.125583827 _14_ RTR  --- 14 DSR 68 [13a e d 800] ------- [13:255 0:255 253 8] 5 [0 2] [1 2 5 0->13] [0 0 0 0->0]
r 15.127907161 _6_ RTR  --- 9 DSR 60 [13a 6 c 800] ------- [13:255 0:255 253 6] 4 [0 2] [1 2 4 0->13] [0 0 0 0->0]
f 15.127907161 _6_ RTR  --- 9 DSR 60 [13a 6 c 800] ------- [13:255 0:255 252 0] 4 [0 2] [1 2 4 0->13] [0 0 0 0->0]
r 15.133963494 _9_ RTR  --- 0 cbr 556 [13a 9 3 800] ------- [0:0 13:0 31 9] [0] 2 0
f 15.133963494 _9_ RTR  --- 0 cbr 556 [13a 9 3 800] ------- [0:0 13:0 30 13] [0] 2 0
r 15.136036265 _11_ RTR  --- 13 DSR 68 [13a b d 800] ------- [13:255 0:255 254 11] 5 [0 2] [1 2 5 0->13] [0 0 0 0->0]
f 15.136036265 _11_ RTR  --- 13 DSR 68 [13a b d 800] ------- [13:255 0:255 253 8] 5 [0 2] [1 2 5 0->13] [0 0 0 0->0]
r 15.138137265 _8_ RTR  --- 13 DSR 68 [13a 8 b 800] ------- [13:255 0:255 253 8] 5 [0 2] [1 2 5 0->13] [0 0 0 0->0]
f 15.138137265 _8_ RTR  --- 13 DSR 68 [13a 8 b 800] ------- [13:255 0:255 252 4] 5 [0 2] [1 2 5 0->13] [0 0 0 0->0]
s 15.139002644 _0_ RTR  --- 3 cbr 556 [0 0 0 0] ------- [0:0 13:0 32 3] [1] 0 0
r 15.140219932 _8_ RTR  --- 14 DSR 68 [13a 8 e 800] ------- [13:255 0:255 253 8] 5 [0 2] [1 2 5 0->13] [0 0 0 0->0]
f 15.140219932 _8_ RTR  --- 14 DSR 68 [13a 8 e 800] ------- [13:255 0:255 252 4] 5 [0 2] [1 2 5 0->13] [0 0 0 0->0]
r 15.146531542 _13_ RTR  --- 0 cbr 556 [13a d 9 800] ------- [0:0 13:0 30 13] [0] 3 0
r 15.146531542 _13_ AGT  --- 0 cbr 512 [13a d 9 800] ------- [0:0 13:0 30 13] [0] 3 0
r 15.148929542 _7_ RTR  --- 12 DSR 60 [13a 7 d 800] ------- [13:255 0:255 254 7] 4 [0 2] [1 2 4 0->13] [0 0 0 0->0]
f 15.148929542 _7_ RTR  --- 12 DSR 60 [13a 7 d 800] ------- [13:255 0:255 253 4] 4 [0 2] [1 2 4 0->13] [0 0 0 0->0]
r 15.151102055 _4_ RTR  --- 13 DSR 68 [13a 4 8 800] ------- [13:255 0:255 252 4] 5 [0 2] [1 2 5 0->13] [0 0 0 0->0]
f 15.151102055 _4_ RTR  --- 13 DSR 68 [13a 4 8 800] ------- [13:255 0:255 251 0] 5 [0 2] [1 2 5 0->13] [0 0 0 0->0]
r 15.153130643 _0_ RTR  --- 9 DSR 60 [13a 0 6 800] ------- [13:255 0:255 252 0] 4 [0 2] [1 2 4 0->13] [0 0 0 0->0]
r 15.155313624 _0_ RTR  --- 13 DSR 68 [13a 0 4 800] ------- [13:255 0:255 251 0] 5 [0 2] [1 2 5 0->13] [0 0 0 0->0]
s 15.157907010 _0_ AGT  --- 15 cbr 512 [0 0 0 0] ------- [0:0 13:0 32 0] [3] 0 0
r 15.157907010 _0_ RTR  --- 15 cbr 512 [0 0 0 0] ------- [0:0 13:0 32 0] [3] 0 0
SFs 15.157907010 _0_ 15 [0 -> 13] 1(0) to 3 
s 15.157907010 _0_ RTR  --- 15 cbr 532 [0 0 0 0] ------- [0:0 13:0 32 3] [3] 0 0
r 15.161438624 _3_ RTR  --- 3 cbr 556 [13a 3 0 800] ------- [0:0 13:0 32 3] [1] 1 0
f 15.161438624 _3_ RTR  --- 3 cbr 556 [13a 3 0 800] ------- [0:0 13:0 31 9] [1] 1 0
r 15.167484624 _9_ RTR  --- 3 cbr 556 [13a 9 3 800] ------- [0:0 13:0 31 9] [1] 2 0
f 15.167484624 _9_ RTR  --- 3 cbr 556 [13a 9 3 800] ------- [0:0 13:0 30 13] [1] 2 0
s 15.169002644 _0_ RTR  --- 7 cbr 556 [0 0 0 0] ------- [0:0 13:0 32 3] [2] 0 0
r 15.169622369 _4_ RTR  --- 12 DSR 60 [13a 4 7 800] ------- [13:255 0:255 253 4] 4 [0 2] [1 2 4 0->13] [0 0 0 0->0]
f 15.169622369 _4_ RTR  --- 12 DSR 60 [13a 4 7 800] ------- [13:255 0:255 252 0] 4 [0 2] [1 2 4 0->13] [0 0 0 0->0]
r 15.171580605 _0_ RTR  --- 12 DSR 60 [13a 0 4 800] ------- [13:255 0:255 252 0] 4 [0 2] [1 2 4 0->13] [0 0 0 0->0]
r 15.177593605 _3_ RTR  --- 15 cbr 532 [13a 3 0 800] ------- [0:0 13:0 32 3] [3] 1 0
SFf 15.177593605 _3_ 15 [0 -> 13] 1 to 9
f 15.177593605 _3_ RTR  --- 15 cbr 532 [13a 3 0 800] ------- [0:0 13:0 31 9] [3] 1 0
r 15.183598939 _3_ RTR  --- 7 cbr 556 [13a 3 0 800] ------- [0:0 13:0 32 3] [2] 1 0
f 15.183598939 _3_ RTR  --- 7 cbr 556 [13a 3 0 800] ------- [0:0 13:0 31 9] [2] 1 0
r 15.189572939 _9_ RTR  --- 15 cbr 532 [13a 9 3 800] ------- [0:0 13:0 31 9] [3] 2 0
SFf 15.189572939 _9_ 15 [0 -> 13] 1 to 13
f 15.189572939 _9_ RTR  --- 15 cbr 532 [13a 9 3 800] ------- [0:0 13:0 30 13] [3] 2 0
r 15.195479605 _9_ RTR  --- 7 cbr 556 [13a 9 3 800] ------- [0:0 13:0 31 9] [2] 2 0
f 15.195479605 _9_ RTR  --- 7 cbr 556 [13a 9 3 800] ------- [0:0 13:0 30 13] [2] 2 0
r 15.201545841 _13_ RTR  --- 3 cbr 556 [13a d 9 800] ------- [0:0 13:0 30 13] [1] 3 0
r 15.201545841 _13_ AGT  --- 3 cbr 512 [13a d 9 800] ------- [0:0 13:0 30 13] [1] 3 0
r 15.207280823 _13_ RTR  --- 15 cbr 532 [13a d 9 800] ------- [0:0 13:0 30 13] [3] 3 0
r 15.207280823 _13_ AGT  --- 15 cbr 512 [13a d 9 800] ------- [0:0 13:0 30 13] [3] 3 0
r 15.213527804 _13_ RTR  --- 7 cbr 556 [13a d 9 800] ------- [0:0 13:0 30 13] [2] 3 0
r 15.213527804 _13_ AGT  --- 7 cbr 512 [13a d 9 800] ------- [0:0 13:0 30 13] [2] 3 0
s 15.215253735 _0_ AGT  --- 16 cbr 512 [0 0 0 0] ------- [0:0 13:0 32 0] [4] 0 0
r 15.215253735 _0_ RTR  --- 16 cbr 512 [0 0 0 0] ------- [0:0 13:0 32 0] [4] 0 0
SFs 15.215253735 _0_ 16 [0 -> 13] 1(0) to 3 
s 15.215253735 _0_ RTR  --- 16 cbr 532 [0 0 0 0] ------- [0:0 13:0 32 3] [4] 0 0
r 15.216154983 _4_ RTR  --- 14 DSR 68 [13a 4 8 800] ------- [13:255 0:255 252 4] 5 [0 2] [1 2 5 0->13] [0 0 0 0->0]
f 15.216154983 _4_ RTR  --- 14 DSR 68 [13a 4 8 800] ------- [13:255 0:255 251 0] 5 [0 2] [1 2 5 0->13] [0 0 0 0->0]
r 15.222398729 _3_ RTR  --- 16 cbr 532 [13a 3 0 800] ------- [0:0 13:0 32 3] [4] 1 0
SFf 15.222398729 _3_ 16 [0 -> 13] 1 to 9
f 15.222398729 _3_ RTR  --- 16 cbr 532 [13a 3 0 800] ------- [0:0 13:0 31 9] [4] 1 0
r 15.228112729 _9_ RTR  --- 16 cbr 532 [13a 9 3 800] ------- [0:0 13:0 31 9] [4] 2 0
SFf 15.228112729 _9_ 16 [0 -> 13] 1 to 13
f 15.228112729 _9_ RTR  --- 16 cbr 532 [13a 9 3 800] ------- [0:0 13:0 30 13] [4] 2 0
r 15.234086965 _13_ RTR  --- 16 cbr 532 [13a d 9 800] ------- [0:0 13:0 30 13] [4] 3 0
r 15.234086965 _13_ AGT  --- 16 cbr 512 [13a d 9 800] ------- [0:0 13:0 30 13] [4] 3 0
r 15.236494201 _0_ RTR  --- 14 DSR 68 [13a 0 4 800] ------- [13:255 0:255 251 0] 5 [0 2] [1 2 5 0->13] [0 0 0 0->0]
s 15.267189138 _0_ AGT  --- 17 cbr 512 [0 0 0 0] ------- [0:0 13:0 32 0] [5] 0 0
r 15.267189138 _0_ RTR  --- 17 cbr 512 [0 0 0 0] ------- [0:0 13:0 32 0] [5] 0 0
SFs 15.267189138 _0_ 17 [0 -> 13] 1(0) to 3 
s 15.267189138 _0_ RTR  --- 17 cbr 532 [0 0 0 0] ------- [0:0 13:0 32 3] [5] 0 0
r 15.272658138 _3_ RTR  --- 17 cbr 532 [13a 3 0 800] ------- [0:0 13:0 32 3] [5] 1 0
SFf 15.272658138 _3_ 17 [0 -> 13] 1 to 9
f 15.272658138 _3_ RTR  --- 17 cbr 532 [13a 3 0 800] ------- [0:0 13:0 31 9] [5] 1 0
r 15.278952138 _9_ RTR  --- 17 cbr 532 [13a 9 3 800] ------- [0:0 13:0 31 9] [5] 2 0
SFf 15.278952138 _9_ 17 [0 -> 13] 1 to 13
f 15.278952138 _9_ RTR  --- 17 cbr 532 [13a 9 3 800] ------- [0:0 13:0 30 13] [5] 2 0
r 15.284946374 _13_ RTR  --- 17 cbr 532 [13a d 9 800] ------- [0:0 13:0 30 13] [5] 3 0
r 15.284946374 _13_ AGT  --- 17 cbr 512 [13a d 9 800] ------- [0:0 13:0 30 13] [5] 3 0
s 15.306921179 _0_ AGT  --- 18 cbr 512 [0 0 0 0] ------- [0:0 13:0 32 0] [6] 0 0
r 15.306921179 _0_ RTR  --- 18 cbr 512 [0 0 0 0] ------- [0:0 13:0 32 0] [6] 0 0
SFs 15.306921179 _0_ 18 [0 -> 13] 1(0) to 3 
s 15.306921179 _0_ RTR  --- 18 cbr 532 [0 0 0 0] ------- [0:0 13:0 32 3] [6] 0 0
r 15.312690179 _3_ RTR  --- 18 cbr 532 [13a 3 0 800] ------- [0:0 13:0 32 3] [6] 1 0
SFf 15.312690179 _3_ 18 [0 -> 13] 1 to 9
f 15.312690179 _3_ RTR  --- 18 cbr 532 [13a 3 0 800] ------- [0:0 13:0 31 9] [6] 1 0
r 15.318504179 _9_ RTR  --- 18 cbr 532 [13a 9 3 800] ------- [0:0 13:0 31 9] [6] 2 0
SFf 15.318504179 _9_ 18 [0 -> 13] 1 to 13
f 15.318504179 _9_ RTR  --- 18 cbr 532 [13a 9 3 800] ------- [0:0 13:0 30 13] [6] 2 0
r 15.324458415 _13_ RTR  --- 18 cbr 532 [13a d 9 800] ------- [0:0 13:0 30 13] [6] 3 0
r 15.324458415 _13_ AGT  --- 18 cbr 512 [13a d 9 800] ------- [0:0 13:0 30 13] [6] 3 0
s 15.379873027 _0_ AGT  --- 19 cbr 512 [0 0 0 0] ------- [0:0 13:0 32 0] [7] 0 0
r 15.379873027 _0_ RTR  --- 19 cbr 512 [0 0 0 0] ------- [0:0 13:0 32 0] [7] 0 0
SFs 15.379873027 _0_ 19 [0 -> 13] 1(0) to 3 
s 15.379873027 _0_ RTR  --- 19 cbr 532 [0 0 0 0] ------- [0:0 13:0 32 3] [7] 0 0
r 15.385662027 _3_ RTR  --- 19 cbr 532 [13a 3 0 800] ------- [0:0 13:0 32 3] [7] 1 0
SFf 15.385662027 _3_ 19 [0 -> 13] 1 to 9
f 15.385662027 _3_ RTR  --- 19 cbr 532 [13a 3 0 800] ------- [0:0 13:0 31 9] [7] 1 0
r 15.391536027 _9_ RTR  --- 19 cbr 532 [13a 9 3 800] ------- [0:0 13:0 31 9] [7] 2 0
SFf 15.391536027 _9_ 19 [0 -> 13] 1 to 13
f 15.391536027 _9_ RTR  --- 19 cbr 532 [13a 9 3 800] ------- [0:0 13:0 30 13] [7] 2 0
r 15.397270263 _13_ RTR  --- 19 cbr 532 [13a d 9 800] ------- [0:0 13:0 30 13] [7] 3 0
r 15.397270263 _13_ AGT  --- 19 cbr 512 [13a d 9 800] ------- [0:0 13:0 30 13] [7] 3 0
s 15.432559035 _0_ AGT  --- 20 cbr 512 [0 0 0 0] ------- [0:0 13:0 32 0] [8] 0 0
r 15.432559035 _0_ RTR  --- 20 cbr 512 [0 0 0 0] ------- [0:0 13:0 32 0] [8] 0 0
SFs 15.432559035 _0_ 20 [0 -> 13] 1(0) to 3 
s 15.432559035 _0_ RTR  --- 20 cbr 532 [0 0 0 0] ------- [0:0 13:0 32 3] [8] 0 0
r 15.438248035 _3_ RTR  --- 20 cbr 532 [13a 3 0 800] ------- [0:0 13:0 32 3] [8] 1 0
SFf 15.438248035 _3_ 20 [0 -> 13] 1 to 9
f 15.438248035 _3_ RTR  --- 20 cbr 532 [13a 3 0 800] ------- [0:0 13:0 31 9] [8] 1 0
r 15.443982035 _9_ RTR  --- 20 cbr 532 [13a 9 3 800] ------- [0:0 13:0 31 9] [8] 2 0
SFf 15.443982035 _9_ 20 [0 -> 13] 1 to 13
f 15.443982035 _9_ RTR  --- 20 cbr 532 [13a 9 3 800] ------- [0:0 13:0 30 13] [8] 2 0
r 15.449856272 _13_ RTR  --- 20 cbr 532 [13a d 9 800] ------- [0:0 13:0 30 13] [8] 3 0
r 15.449856272 _13_ AGT  --- 20 cbr 512 [13a d 9 800] ------- [0:0 13:0 30 13] [8] 3 0
s 15.469223375 _0_ AGT  --- 21 cbr 512 [0 0 0 0] ------- [0:0 13:0 32 0] [9] 0 0
r 15.469223375 _0_ RTR  --- 21 cbr 512 [0 0 0 0] ------- [0:0 13:0 32 0] [9] 0 0
SFs 15.469223375 _0_ 21 [0 -> 13] 1(0) to 3 
s 15.469223375 _0_ RTR  --- 21 cbr 532 [0 0 0 0] ------- [0:0 13:0 32 3] [9] 0 0
r 15.475152375 _3_ RTR  --- 21 cbr 532 [13a 3 0 800] ------- [0:0 13:0 32 3] [9] 1 0
SFf 15.475152375 _3_ 21 [0 -> 13] 1 to 9
f 15.475152375 _3_ RTR  --- 21 cbr 532 [13a 3 0 800] ------- [0:0 13:0 31 9] [9] 1 0
r 15.481466375 _9_ RTR  --- 21 cbr 532 [13a 9 3 800] ------- [0:0 13:0 31 9] [9] 2 0
SFf 15.481466375 _9_ 21 [0 -> 13] 1 to 13
f 15.481466375 _9_ RTR  --- 21 cbr 532 [13a 9 3 800] ------- [0:0 13:0 30 13] [9] 2 0
r 15.487520611 _13_ RTR  --- 21 cbr 532 [13a d 9 800] ------- [0:0 13:0 30 13] [9] 3 0
r 15.487520611 _13_ AGT  --- 21 cbr 512 [13a d 9 800] ------- [0:0 13:0 30 13] [9] 3 0
s 15.536073267 _0_ AGT  --- 22 cbr 512 [0 0 0 0] ------- [0:0 13:0 32 0] [10] 0 0
r 15.536073267 _0_ RTR  --- 22 cbr 512 [0 0 0 0] ------- [0:0 13:0 32 0] [10] 0 0
SFs 15.536073267 _0_ 22 [0 -> 13] 1(0) to 3 
s 15.536073267 _0_ RTR  --- 22 cbr 532 [0 0 0 0] ------- [0:0 13:0 32 3] [10] 0 0
r 15.541962267 _3_ RTR  --- 22 cbr 532 [13a 3 0 800] ------- [0:0 13:0 32 3] [10] 1 0
SFf 15.541962267 _3_ 22 [0 -> 13] 1 to 9
f 15.541962267 _3_ RTR  --- 22 cbr 532 [13a 3 0 800] ------- [0:0 13:0 31 9] [10] 1 0
r 15.548256267 _9_ RTR  --- 22 cbr 532 [13a 9 3 800] ------- [0:0 13:0 31 9] [10] 2 0
SFf 15.548256267 _9_ 22 [0 -> 13] 1 to 13
f 15.548256267 _9_ RTR  --- 22 cbr 532 [13a 9 3 800] ------- [0:0 13:0 30 13] [10] 2 0
r 15.554230503 _13_ RTR  --- 22 cbr 532 [13a d 9 800] ------- [0:0 13:0 30 13] [10] 3 0
r 15.554230503 _13_ AGT  --- 22 cbr 512 [13a d 9 800] ------- [0:0 13:0 30 13] [10] 3 0
s 15.587875612 _0_ AGT  --- 23 cbr 512 [0 0 0 0] ------- [0:0 13:0 32 0] [11] 0 0
r 15.587875612 _0_ RTR  --- 23 cbr 512 [0 0 0 0] ------- [0:0 13:0 32 0] [11] 0 0
SFs 15.587875612 _0_ 23 [0 -> 13] 1(0) to 3 
s 15.587875612 _0_ RTR  --- 23 cbr 532 [0 0 0 0] ------- [0:0 13:0 32 3] [11] 0 0
r 15.593824612 _3_ RTR  --- 23 cbr 532 [13a 3 0 800] ------- [0:0 13:0 32 3] [11] 1 0
SFf 15.593824612 _3_ 23 [0 -> 13] 1 to 9
f 15.593824612 _3_ RTR  --- 23 cbr 532 [13a 3 0 800] ------- [0:0 13:0 31 9] [11] 1 0
r 15.600118612 _9_ RTR  --- 23 cbr 532 [13a 9 3 800] ------- [0:0 13:0 31 9] [11] 2 0
SFf 15.600118612 _9_ 23 [0 -> 13] 1 to 13
f 15.600118612 _9_ RTR  --- 23 cbr 532 [13a 9 3 800] ------- [0:0 13:0 30 13] [11] 2 0
r 15.606412848 _13_ RTR  --- 23 cbr 532 [13a d 9 800] ------- [0:0 13:0 30 13] [11] 3 0
r 15.606412848 _13_ AGT  --- 23 cbr 512 [13a d 9 800] ------- [0:0 13:0 30 13] [11] 3 0
s 15.635764167 _0_ AGT  --- 24 cbr 512 [0 0 0 0] ------- [0:0 13:0 32 0] [12] 0 0
r 15.635764167 _0_ RTR  --- 24 cbr 512 [0 0 0 0] ------- [0:0 13:0 32 0] [12] 0 0
SFs 15.635764167 _0_ 24 [0 -> 13] 1(0) to 3 
s 15.635764167 _0_ RTR  --- 24 cbr 532 [0 0 0 0] ------- [0:0 13:0 32 3] [12] 0 0
r 15.641653167 _3_ RTR  --- 24 cbr 532 [13a 3 0 800] ------- [0:0 13:0 32 3] [12] 1 0
SFf 15.641653167 _3_ 24 [0 -> 13] 1 to 9
f 15.641653167 _3_ RTR  --- 24 cbr 532 [13a 3 0 800] ------- [0:0 13:0 31 9] [12] 1 0
r 15.647887167 _9_ RTR  --- 24 cbr 532 [13a 9 3 800] ------- [0:0 13:0 31 9] [12] 2 0
SFf 15.647887167 _9_ 24 [0 -> 13] 1 to 13
f 15.647887167 _9_ RTR  --- 24 cbr 532 [13a 9 3 800] ------- [0:0 13:0 30 13] [12] 2 0
r 15.653721403 _13_ RTR  --- 24 cbr 532 [13a d 9 800] ------- [0:0 13:0 30 13] [12] 3 0
r 15.653721403 _13_ AGT  --- 24 cbr 512 [13a d 9 800] ------- [0:0 13:0 30 13] [12] 3 0
s 15.674829820 _0_ AGT  --- 25 cbr 512 [0 0 0 0] ------- [0:0 13:0 32 0] [13] 0 0
r 15.674829820 _0_ RTR  --- 25 cbr 512 [0 0 0 0] ------- [0:0 13:0 32 0] [13] 0 0
SFs 15.674829820 _0_ 25 [0 -> 13] 1(0) to 3 
s 15.674829820 _0_ RTR  --- 25 cbr 532 [0 0 0 0] ------- [0:0 13:0 32 3] [13] 0 0
r 15.680498820 _3_ RTR  --- 25 cbr 532 [13a 3 0 800] ------- [0:0 13:0 32 3] [13] 1 0
SFf 15.680498820 _3_ 25 [0 -> 13] 1 to 9
f 15.680498820 _3_ RTR  --- 25 cbr 532 [13a 3 0 800] ------- [0:0 13:0 31 9] [13] 1 0
r 15.686232820 _9_ RTR  --- 25 cbr 532 [13a 9 3 800] ------- [0:0 13:0 31 9] [13] 2 0
SFf 15.686232820 _9_ 25 [0 -> 13] 1 to 13
f 15.686232820 _9_ RTR  --- 25 cbr 532 [13a 9 3 800] ------- [0:0 13:0 30 13] [13] 2 0
r 15.692467056 _13_ RTR  --- 25 cbr 532 [13a d 9 800] ------- [0:0 13:0 30 13] [13] 3 0
r 15.692467056 _13_ AGT  --- 25 cbr 512 [13a d 9 800] ------- [0:0 13:0 30 13] [13] 3 0
s 15.748033058 _0_ AGT  --- 26 cbr 512 [0 0 0 0] ------- [0:0 13:0 32 0] [14] 0 0
r 15.748033058 _0_ RTR  --- 26 cbr 512 [0 0 0 0] ------- [0:0 13:0 32 0] [14] 0 0
SFs 15.748033058 _0_ 26 [0 -> 13] 1(0) to 3 
s 15.748033058 _0_ RTR  --- 26 cbr 532 [0 0 0 0] ------- [0:0 13:0 32 3] [14] 0 0
r 15.753942058 _3_ RTR  --- 26 cbr 532 [13a 3 0 800] ------- [0:0 13:0 32 3] [14] 1 0
SFf 15.753942058 _3_ 26 [0 -> 13] 1 to 9
f 15.753942058 _3_ RTR  --- 26 cbr 532 [13a 3 0 800] ------- [0:0 13:0 31 9] [14] 1 0
r 15.759696058 _9_ RTR  --- 26 cbr 532 [13a 9 3 800] ------- [0:0 13:0 31 9] [14] 2 0
SFf 15.759696058 _9_ 26 [0 -> 13] 1 to 13
f 15.759696058 _9_ RTR  --- 26 cbr 532 [13a 9 3 800] ------- [0:0 13:0 30 13] [14] 2 0
r 15.765610294 _13_ RTR  --- 26 cbr 532 [13a d 9 800] ------- [0:0 13:0 30 13] [14] 3 0
r 15.765610294 _13_ AGT  --- 26 cbr 512 [13a d 9 800] ------- [0:0 13:0 30 13] [14] 3 0
s 15.793074568 _0_ AGT  --- 27 cbr 512 [0 0 0 0] ------- [0:0 13:0 32 0] [15] 0 0
r 15.793074568 _0_ RTR  --- 27 cbr 512 [0 0 0 0] ------- [0:0 13:0 32 0] [15] 0 0
SFs 15.793074568 _0_ 27 [0 -> 13] 1(0) to 3 
s 15.793074568 _0_ RTR  --- 27 cbr 532 [0 0 0 0] ------- [0:0 13:0 32 3] [15] 0 0
r 15.798823568 _3_ RTR  --- 27 cbr 532 [13a 3 0 800] ------- [0:0 13:0 32 3] [15] 1 0