n -t * -s 0  -x 100 -y 100 -Z 0 -z 30  -v circle -c black
n -t * -s 1  -x 300 -y 100 -Z 0 -z 30  -v circle -c black
n -t * -s 2  -x 500 -y 100 -Z 0 -z 30  -v circle -c black
n -t * -s 3  -x 200 -y 200 -Z 0 -z 30  -v circle -c black
n -t * -s 4  -x 400 -y 200 -Z 0 -z 30  -v circle -c black
n -t * -s 5  -x 100 -y 300 -Z 0 -z 30  -v circle -c black
n -t * -s 6  -x 300 -y 300 -Z 0 -z 30  -v circle -c black
n -t * -s 7  -x 500 -y 300 -Z 0 -z 30  -v circle -c black
V -t * -v 1.0a5 -a 0
W -t * -x 500 -y 500
A -t * -n 1 -p 0 -o 0xffffffff -c 31 -a 1
A -t * -h 1 -m 2147483647 -s 0
+ -t 15.000000000 -s 0 -d -1 -p cbr -e 512 -c 2 -a 0 -i 0 -k AGT 
- -t 15.000000000 -s 0 -d -1 -p cbr -e 512 -c 2 -a 0 -i 0 -k AGT
h -t 15.000000000 -s 0 -d -1 -p cbr -e 512 -c 2 -a 0 -i 0 -k AGT
+ -t 15.000000000 -s 1 -d -1 -p cbr -e 512 -c 2 -a 0 -i 2 -k AGT 
- -t 15.000000000 -s 1 -d -1 -p cbr -e 512 -c 2 -a 0 -i 2 -k AGT
h -t 15.000000000 -s 1 -d -1 -p cbr -e 512 -c 2 -a 0 -i 2 -k AGT
+ -t 15.004007305 -s 1 -d -1 -p DSR -e 32 -c 2 -a 0 -i 3 -k RTR 
- -t 15.004007305 -s 1 -d -1 -p DSR -e 32 -c 2 -a 0 -i 3 -k RTR
h -t 15.004007305 -s 1 -d -1 -p DSR -e 32 -c 2 -a 0 -i 3 -k RTR
+ -t 15.005035754 -s 0 -d -1 -p DSR -e 32 -c 2 -a 0 -i 1 -k RTR 
- -t 15.005035754 -s 0 -d -1 -p DSR -e 32 -c 2 -a 0 -i 1 -k RTR
h -t 15.005035754 -s 0 -d -1 -p DSR -e 32 -c 2 -a 0 -i 1 -k RTR
+ -t 15.007403421 -s 6 -d 1 -p DSR -e 44 -c 2 -a 0 -i 4 -k RTR 
- -t 15.007403421 -s 6 -d 1 -p DSR -e 44 -c 2 -a 0 -i 4 -k RTR
h -t 15.007403421 -s 6 -d 1 -p DSR -e 44 -c 2 -a 0 -i 4 -k RTR
+ -t 15.009269421 -s 1 -d 6 -p cbr -e 548 -c 2 -a 0 -i 2 -k RTR 
- -t 15.009269421 -s 1 -d 6 -p cbr -e 548 -c 2 -a 0 -i 2 -k RTR
h -t 15.009269421 -s 1 -d 6 -p cbr -e 548 -c 2 -a 0 -i 2 -k RTR
r -t 15.015171421 -s 6 -d 6 -p cbr -e 512 -c 2 -a 0 -i 2 -k AGT
+ -t 15.053525210 -s 1 -d -1 -p cbr -e 512 -c 2 -a 0 -i 6 -k AGT 
- -t 15.053525210 -s 1 -d -1 -p cbr -e 512 -c 2 -a 0 -i 6 -k AGT
h -t 15.053525210 -s 1 -d -1 -p cbr -e 512 -c 2 -a 0 -i 6 -k AGT
+ -t 15.053525210 -s 1 -d 6 -p cbr -e 548 -c 2 -a 0 -i 6 -k RTR 
- -t 15.053525210 -s 1 -d 6 -p cbr -e 548 -c 2 -a 0 -i 6 -k RTR
h -t 15.053525210 -s 1 -d 6 -p cbr -e 548 -c 2 -a 0 -i 6 -k RTR
+ -t 15.054106129 -s 0 -d -1 -p cbr -e 512 -c 2 -a 0 -i 7 -k AGT 
- -t 15.054106129 -s 0 -d -1 -p cbr -e 512 -c 2 -a 0 -i 7 -k AGT
h -t 15.054106129 -s 0 -d -1 -p cbr -e 512 -c 2 -a 0 -i 7 -k AGT
+ -t 15.057069608 -s 0 -d -1 -p DSR -e 32 -c 2 -a 0 -i 8 -k RTR 
- -t 15.057069608 -s 0 -d -1 -p DSR -e 32 -c 2 -a 0 -i 8 -k RTR
h -t 15.057069608 -s 0 -d -1 -p DSR -e 32 -c 2 -a 0 -i 8 -k RTR
r -t 15.059483210 -s 6 -d 6 -p cbr -e 512 -c 2 -a 0 -i 6 -k AGT
+ -t 15.061666812 -s 5 -d -1 -p DSR -e 48 -c 2 -a 0 -i 8 -k RTR 
- -t 15.061666812 -s 5 -d -1 -p DSR -e 48 -c 2 -a 0 -i 8 -k RTR
h -t 15.061666812 -s 5 -d -1 -p DSR -e 48 -c 2 -a 0 -i 8 -k RTR
+ -t 15.062056814 -s 1 -d -1 -p DSR -e 48 -c 2 -a 0 -i 8 -k RTR 
- -t 15.062056814 -s 1 -d -1 -p DSR -e 48 -c 2 -a 0 -i 8 -k RTR
h -t 15.062056814 -s 1 -d -1 -p DSR -e 48 -c 2 -a 0 -i 8 -k RTR
+ -t 15.065504796 -s 3 -d -1 -p DSR -e 48 -c 2 -a 0 -i 8 -k RTR 
- -t 15.065504796 -s 3 -d -1 -p DSR -e 48 -c 2 -a 0 -i 8 -k RTR
h -t 15.065504796 -s 3 -d -1 -p DSR -e 48 -c 2 -a 0 -i 8 -k RTR
+ -t 15.066990926 -s 6 -d -1 -p DSR -e 68 -c 2 -a 0 -i 8 -k RTR 
- -t 15.066990926 -s 6 -d -1 -p DSR -e 68 -c 2 -a 0 -i 8 -k RTR
h -t 15.066990926 -s 6 -d -1 -p DSR -e 68 -c 2 -a 0 -i 8 -k RTR
+ -t 15.068876926 -s 4 -d -1 -p DSR -e 68 -c 2 -a 0 -i 8 -k RTR 
- -t 15.068876926 -s 4 -d -1 -p DSR -e 68 -c 2 -a 0 -i 8 -k RTR
h -t 15.068876926 -s 4 -d -1 -p DSR -e 68 -c 2 -a 0 -i 8 -k RTR
+ -t 15.071247404 -s 2 -d -1 -p DSR -e 68 -c 2 -a 0 -i 8 -k RTR 
- -t 15.071247404 -s 2 -d -1 -p DSR -e 68 -c 2 -a 0 -i 8 -k RTR
h -t 15.071247404 -s 2 -d -1 -p DSR -e 68 -c 2 -a 0 -i 8 -k RTR
+ -t 15.073083536 -s 7 -d 2 -p DSR -e 60 -c 2 -a 0 -i 11 -k RTR 
- -t 15.073083536 -s 7 -d 2 -p DSR -e 60 -c 2 -a 0 -i 11 -k RTR
h -t 15.073083536 -s 7 -d 2 -p DSR -e 60 -c 2 -a 0 -i 11 -k RTR
+ -t 15.074837536 -s 2 -d 1 -p DSR -e 60 -c 2 -a 0 -i 11 -k RTR 
- -t 15.074837536 -s 2 -d 1 -p DSR -e 60 -c 2 -a 0 -i 11 -k RTR
h -t 15.074837536 -s 2 -d 1 -p DSR -e 60 -c 2 -a 0 -i 11 -k RTR
+ -t 15.076955536 -s 1 -d 0 -p DSR -e 60 -c 2 -a 0 -i 11 -k RTR 
- -t 15.076955536 -s 1 -d 0 -p DSR -e 60 -c 2 -a 0 -i 11 -k RTR
h -t 15.076955536 -s 1 -d 0 -p DSR -e 60 -c 2 -a 0 -i 11 -k RTR
+ -t 15.078330065 -s 7 -d 6 -p DSR -e 60 -c 2 -a 0 -i 9 -k RTR 
- -t 15.078330065 -s 7 -d 6 -p DSR -e 60 -c 2 -a 0 -i 9 -k RTR
h -t 15.078330065 -s 7 -d 6 -p DSR -e 60 -c 2 -a 0 -i 9 -k RTR
+ -t 15.078924740 -s 7 -d 4 -p DSR -e 60 -c 2 -a 0 -i 10 -k RTR 
- -t 15.078924740 -s 7 -d 4 -p DSR -e 60 -c 2 -a 0 -i 10 -k RTR
h -t 15.078924740 -s 7 -d 4 -p DSR -e 60 -c 2 -a 0 -i 10 -k RTR
+ -t 15.079293536 -s 0 -d 1 -p cbr -e 556 -c 2 -a 0 -i 0 -k RTR 
- -t 15.079293536 -s 0 -d 1 -p cbr -e 556 -c 2 -a 0 -i 0 -k RTR
h -t 15.079293536 -s 0 -d 1 -p cbr -e 556 -c 2 -a 0 -i 0 -k RTR
+ -t 15.085559536 -s 1 -d 2 -p cbr -e 556 -c 2 -a 0 -i 0 -k RTR 
- -t 15.085559536 -s 1 -d 2 -p cbr -e 556 -c 2 -a 0 -i 0 -k RTR
h -t 15.085559536 -s 1 -d 2 -p cbr -e 556 -c 2 -a 0 -i 0 -k RTR
+ -t 15.087708794 -s 1 -d -1 -p cbr -e 512 -c 2 -a 0 -i 14 -k AGT 
- -t 15.087708794 -s 1 -d -1 -p cbr -e 512 -c 2 -a 0 -i 14 -k AGT
h -t 15.087708794 -s 1 -d -1 -p cbr -e 512 -c 2 -a 0 -i 14 -k AGT
+ -t 15.087708794 -s 1 -d 6 -p cbr -e 548 -c 2 -a 0 -i 14 -k RTR 
- -t 15.087708794 -s 1 -d 6 -p cbr -e 548 -c 2 -a 0 -i 14 -k RTR
h -t 15.087708794 -s 1 -d 6 -p cbr -e 548 -c 2 -a 0 -i 14 -k RTR
+ -t 15.091465536 -s 2 -d 7 -p cbr -e 556 -c 2 -a 0 -i 0 -k RTR 
- -t 15.091465536 -s 2 -d 7 -p cbr -e 556 -c 2 -a 0 -i 0 -k RTR
h -t 15.091465536 -s 2 -d 7 -p cbr -e 556 -c 2 -a 0 -i 0 -k RTR
r -t 15.097768203 -s 6 -d 6 -p cbr -e 512 -c 2 -a 0 -i 14 -k AGT
+ -t 15.099816479 -s 6 -d 5 -p DSR -e 60 -c 2 -a 0 -i 9 -k RTR 
- -t 15.099816479 -s 6 -d 5 -p DSR -e 60 -c 2 -a 0 -i 9 -k RTR
h -t 15.099816479 -s 6 -d 5 -p DSR -e 60 -c 2 -a 0 -i 9 -k RTR
+ -t 15.101794560 -s 4 -d 1 -p DSR -e 60 -c 2 -a 0 -i 10 -k RTR 
- -t 15.101794560 -s 4 -d 1 -p DSR -e 60 -c 2 -a 0 -i 10 -k RTR
h -t 15.101794560 -s 4 -d 1 -p DSR -e 60 -c 2 -a 0 -i 10 -k RTR
+ -t 15.101932549 -s 0 -d -1 -p cbr -e 512 -c 2 -a 0 -i 15 -k AGT 
- -t 15.101932549 -s 0 -d -1 -p cbr -e 512 -c 2 -a 0 -i 15 -k AGT
h -t 15.101932549 -s 0 -d -1 -p cbr -e 512 -c 2 -a 0 -i 15 -k AGT
+ -t 15.101932549 -s 0 -d 1 -p cbr -e 556 -c 2 -a 0 -i 15 -k RTR 
- -t 15.101932549 -s 0 -d 1 -p cbr -e 556 -c 2 -a 0 -i 15 -k RTR
h -t 15.101932549 -s 0 -d 1 -p cbr -e 556 -c 2 -a 0 -i 15 -k RTR
r -t 15.107801031 -s 7 -d 7 -p cbr -e 512 -c 2 -a 0 -i 0 -k AGT
+ -t 15.109293536 -s 0 -d 1 -p cbr -e 556 -c 2 -a 0 -i 7 -k RTR 
- -t 15.109293536 -s 0 -d 1 -p cbr -e 556 -c 2 -a 0 -i 7 -k RTR
h -t 15.109293536 -s 0 -d 1 -p cbr -e 556 -c 2 -a 0 -i 7 -k RTR
+ -t 15.109898917 -s 1 -d 0 -p DSR -e 60 -c 2 -a 0 -i 10 -k RTR 
- -t 15.109898917 -s 1 -d 0 -p DSR -e 60 -c 2 -a 0 -i 10 -k RTR
h -t 15.109898917 -s 1 -d 0 -p DSR -e 60 -c 2 -a 0 -i 10 -k RTR
+ -t 15.112097583 -s 5 -d 0 -p DSR -e 60 -c 2 -a 0 -i 9 -k RTR 
- -t 15.112097583 -s 5 -d 0 -p DSR -e 60 -c 2 -a 0 -i 9 -k RTR
h -t 15.112097583 -s 5 -d 0 -p DSR -e 60 -c 2 -a 0 -i 9 -k RTR
+ -t 15.118193860 -s 1 -d 2 -p cbr -e 556 -c 2 -a 0 -i 15 -k RTR 
- -t 15.118193860 -s 1 -d 2 -p cbr -e 556 -c 2 -a 0 -i 15 -k RTR
h -t 15.118193860 -s 1 -d 2 -p cbr -e 556 -c 2 -a 0 -i 15 -k RTR
+ -t 15.124340526 -s 1 -d 2 -p cbr -e 556 -c 2 -a 0 -i 7 -k RTR 
- -t 15.124340526 -s 1 -d 2 -p cbr -e 556 -c 2 -a 0 -i 7 -k RTR
h -t 15.124340526 -s 1 -d 2 -p cbr -e 556 -c 2 -a 0 -i 7 -k RTR
+ -t 15.131814436 -s 0 -d -1 -p cbr -e 512 -c 2 -a 0 -i 16 -k AGT 
- -t 15.131814436 -s 0 -d -1 -p cbr -e 512 -c 2 -a 0 -i 16 -k AGT
h -t 15.131814436 -s 0 -d -1 -p cbr -e 512 -c 2 -a 0 -i 16 -k AGT
+ -t 15.131814436 -s 0 -d 1 -p cbr -e 532 -c 2 -a 0 -i 16 -k RTR 
- -t 15.131814436 -s 0 -d 1 -p cbr -e 532 -c 2 -a 0 -i 16 -k RTR
h -t 15.131814436 -s 0 -d 1 -p cbr -e 532 -c 2 -a 0 -i 16 -k RTR
+ -t 15.134743079 -s 2 -d 7 -p cbr -e 556 -c 2 -a 0 -i 15 -k RTR 
- -t 15.134743079 -s 2 -d 7 -p cbr -e 556 -c 2 -a 0 -i 15 -k RTR
h -t 15.134743079 -s 2 -d 7 -p cbr -e 556 -c 2 -a 0 -i 15 -k RTR
r -t 15.140809079 -s 7 -d 7 -p cbr -e 512 -c 2 -a 0 -i 15 -k AGT
+ -t 15.142240955 -s 1 -d -1 -p cbr -e 512 -c 2 -a 0 -i 17 -k AGT 
- -t 15.142240955 -s 1 -d -1 -p cbr -e 512 -c 2 -a 0 -i 17 -k AGT
h -t 15.142240955 -s 1 -d -1 -p cbr -e 512 -c 2 -a 0 -i 17 -k AGT
+ -t 15.142240955 -s 1 -d 6 -p cbr -e 532 -c 2 -a 0 -i 17 -k RTR 
- -t 15.142240955 -s 1 -d 6 -p cbr -e 532 -c 2 -a 0 -i 17 -k RTR
h -t 15.142240955 -s 1 -d 6 -p cbr -e 532 -c 2 -a 0 -i 17 -k RTR
+ -t 15.147280021 -s 2 -d 7 -p cbr -e 556 -c 2 -a 0 -i 7 -k RTR 
- -t 15.147280021 -s 2 -d 7 -p cbr -e 556 -c 2 -a 0 -i 7 -k RTR
h -t 15.147280021 -s 2 -d 7 -p cbr -e 556 -c 2 -a 0 -i 7 -k RTR
r -t 15.153326021 -s 7 -d 7 -p cbr -e 512 -c 2 -a 0 -i 7 -k AGT
+ -t 15.159765512 -s 1 -d 2 -p cbr -e 532 -c 2 -a 0 -i 16 -k RTR 
- -t 15.159765512 -s 1 -d 2 -p cbr -e 532 -c 2 -a 0 -i 16 -k RTR
h -t 15.159765512 -s 1 -d 2 -p cbr -e 532 -c 2 -a 0 -i 16 -k RTR
r -t 15.165579512 -s 6 -d 6 -p cbr -e 512 -c 2 -a 0 -i 17 -k AGT
+ -t 15.168822216 -s 1 -d -1 -p cbr -e 512 -c 2 -a 0 -i 18 -k AGT 
- -t 15.168822216 -s 1 -d -1 -p cbr -e 512 -c 2 -a 0 -i 18 -k AGT
h -t 15.168822216 -s 1 -d -1 -p cbr -e 512 -c 2 -a 0 -i 18 -k AGT
+ -t 15.168822216 -s 1 -d 6 -p cbr -e 532 -c 2 -a 0 -i 18 -k RTR 
- -t 15.168822216 -s 1 -d 6 -p cbr -e 532 -c 2 -a 0 -i 18 -k RTR
h -t 15.168822216 -s 1 -d 6 -p cbr -e 532 -c 2 -a 0 -i 18 -k RTR
+ -t 15.171574179 -s 2 -d 7 -p cbr -e 532 -c 2 -a 0 -i 16 -k RTR 
- -t 15.171574179 -s 2 -d 7 -p cbr -e 532 -c 2 -a 0 -i 16 -k RTR
h -t 15.171574179 -s 2 -d 7 -p cbr -e 532 -c 2 -a 0 -i 16 -k RTR
r -t 15.177628179 -s 7 -d 7 -p cbr -e 512 -c 2 -a 0 -i 16 -k AGT
r -t 15.183827122 -s 6 -d 6 -p cbr -e 512 -c 2 -a 0 -i 18 -k AGT
+ -t 15.188759446 -s 0 -d -1 -p cbr -e 512 -c 2 -a 0 -i 19 -k AGT 
- -t 15.188759446 -s 0 -d -1 -p cbr -e 512 -c 2 -a 0 -i 19 -k AGT
h -t 15.188759446 -s 0 -d -1 -p cbr -e 512 -c 2 -a 0 -i 19 -k AGT
+ -t 15.188759446 -s 0 -d 1 -p cbr -e 532 -c 2 -a 0 -i 19 -k RTR 
- -t 15.188759446 -s 0 -d 1 -p cbr -e 532 -c 2 -a 0 -i 19 -k RTR
h -t 15.188759446 -s 0 -d 1 -p cbr -e 532 -c 2 -a 0 -i 19 -k RTR
+ -t 15.194509446 -s 1 -d 2 -p cbr -e 532 -c 2 -a 0 -i 19 -k RTR 
- -t 15.194509446 -s 1 -d 2 -p cbr -e 532 -c 2 -a 0 -i 19 -k RTR
h -t 15.194509446 -s 1 -d 2 -p cbr -e 532 -c 2 -a 0 -i 19 -k RTR
+ -t 15.200443446 -s 2 -d 7 -p cbr -e 532 -c 2 -a 0 -i 19 -k RTR 
- -t 15.200443446 -s 2 -d 7 -p cbr -e 532 -c 2 -a 0 -i 19 -k RTR
h -t 15.200443446 -s 2 -d 7 -p cbr -e 532 -c 2 -a 0 -i 19 -k RTR
r -t 15.206397446 -s 7 -d 7 -p cbr -e 512 -c 2 -a 0 -i 19 -k AGT
+ -t 15.210652658 -s 1 -d -1 -p cbr -e 512 -c 2 -a 0 -i 20 -k AGT 
- -t 15.210652658 -s 1 -d -1 -p cbr -e 512 -c 2 -a 0 -i 20 -k AGT
h -t 15.210652658 -s 1 -d -1 -p cbr -e 512 -c 2 -a 0 -i 20 -k AGT
+ -t 15.210652658 -s 1 -d 6 -p cbr -e 532 -c 2 -a 0 -i 20 -k RTR 
- -t 15.210652658 -s 1 -d 6 -p cbr -e 532 -c 2 -a 0 -i 20 -k RTR
h -t 15.210652658 -s 1 -d 6 -p cbr -e 532 -c 2 -a 0 -i 20 -k RTR
r -t 15.216202658 -s 6 -d 6 -p cbr -e 512 -c 2 -a 0 -i 20 -k AGT
+ -t 15.223824422 -s 0 -d -1 -p cbr -e 512 -c 2 -a 0 -i 21 -k AGT 
- -t 15.223824422 -s 0 -d -1 -p cbr -e 512 -c 2 -a 0 -i 21 -k AGT
h -t 15.223824422 -s 0 -d -1 -p cbr -e 512 -c 2 -a 0 -i 21 -k AGT
+ -t 15.223824422 -s 0 -d 1 -p cbr -e 532 -c 2 -a 0 -i 21 -k RTR 
- -t 15.223824422 -s 0 -d 1 -p cbr -e 532 -c 2 -a 0 -i 21 -k RTR
h -t 15.223824422 -s 0 -d 1 -p cbr -e 532 -c 2 -a 0 -i 21 -k RTR
+ -t 15.229834422 -s 1 -d 2 -p cbr -e 532 -c 2 -a 0 -i 21 -k RTR 
- -t 15.229834422 -s 1 -d 2 -p cbr -e 532 -c 2 -a 0 -i 21 -k RTR
h -t 15.229834422 -s 1 -d 2 -p cbr -e 532 -c 2 -a 0 -i 21 -k RTR
+ -t 15.236008422 -s 2 -d 7 -p cbr -e 532 -c 2 -a 0 -i 21 -k RTR 
- -t 15.236008422 -s 2 -d 7 -p cbr -e 532 -c 2 -a 0 -i 21 -k RTR
h -t 15.236008422 -s 2 -d 7 -p cbr -e 532 -c 2 -a 0 -i 21 -k RTR
r -t 15.242242422 -s 7 -d 7 -p cbr -e 512 -c 2 -a 0 -i 21 -k AGT
+ -t 15.276844394 -s 1 -d -1 -p cbr -e 512 -c 2 -a 0 -i 22 -k AGT 
- -t 15.276844394 -s 1 -d -1 -p cbr -e 512 -c 2 -a 0 -i 22 -k AGT
h -t 15.276844394 -s 1 -d -1 -p cbr -e 512 -c 2 -a 0 -i 22 -k AGT
+ -t 15.276844394 -s 1 -d 6 -p cbr -e 532 -c 2 -a 0 -i 22 -k RTR 
- -t 15.276844394 -s 1 -d 6 -p cbr -e 532 -c 2 -a 0 -i 22 -k RTR
h -t 15.276844394 -s 1 -d 6 -p cbr -e 532 -c 2 -a 0 -i 22 -k RTR
r -t 15.282634394 -s 6 -d 6 -p cbr -e 512 -c 2 -a 0 -i 22 -k AGT
+ -t 15.285911791 -s 0 -d -1 -p cbr -e 512 -c 2 -a 0 -i 23 -k AGT 
- -t 15.285911791 -s 0 -d -1 -p cbr -e 512 -c 2 -a 0 -i 23 -k AGT
h -t 15.285911791 -s 0 -d -1 -p cbr -e 512 -c 2 -a 0 -i 23 -k AGT
+ -t 15.285911791 -s 0 -d 1 -p cbr -e 532 -c 2 -a 0 -i 23 -k RTR 
- -t 15.285911791 -s 0 -d 1 -p cbr -e 532 -c 2 -a 0 -i 23 -k RTR
h -t 15.285911791 -s 0 -d 1 -p cbr -e 532 -c 2 -a 0 -i 23 -k RTR
+ -t 15.291361791 -s 1 -d 2 -p cbr -e 532 -c 2 -a 0 -i 23 -k RTR 
- -t 15.291361791 -s 1 -d 2 -p cbr -e 532 -c 2 -a 0 -i 23 -k RTR
h -t 15.291361791 -s 1 -d 2 -p cbr -e 532 -c 2 -a 0 -i 23 -k RTR
+ -t 15.297195791 -s 2 -d 7 -p cbr -e 532 -c 2 -a 0 -i 23 -k RTR 
- -t 15.297195791 -s 2 -d 7 -p cbr -e 532 -c 2 -a 0 -i 23 -k RTR
h -t 15.297195791 -s 2 -d 7 -p cbr -e 532 -c 2 -a 0 -i 23 -k RTR
r -t 15.303389791 -s 7 -d 7 -p cbr -e 512 -c 2 -a 0 -i 23 -k AGT
+ -t 15.326009322 -s 1 -d -1 -p cbr -e 512 -c 2 -a 0 -i 24 -k AGT 
- -t 15.326009322 -s 1 -d -1 -p cbr -e 512 -c 2 -a 0 -i 24 -k AGT
h -t 15.326009322 -s 1 -d -1 -p cbr -e 512 -c 2 -a 0 -i 24 -k AGT
+ -t 15.326009322 -s 1 -d 6 -p cbr -e 532 -c 2 -a 0 -i 24 -k RTR 
- -t 15.326009322 -s 1 -d 6 -p cbr -e 532 -c 2 -a 0 -i 24 -k RTR
h -t 15.326009322 -s 1 -d 6 -p cbr -e 532 -c 2 -a 0 -i 24 -k RTR
r -t 15.331919322 -s 6 -d 6 -p cbr -e 512 -c 2 -a 0 -i 24 -k AGT
+ -t 15.348368455 -s 0 -d -1 -p cbr -e 512 -c 2 -a 0 -i 25 -k AGT 
- -t 15.348368455 -s 0 -d -1 -p cbr -e 512 -c 2 -a 0 -i 25 -k AGT
h -t 15.348368455 -s 0 -d -1 -p cbr -e 512 -c 2 -a 0 -i 25 -k AGT
+ -t 15.348368455 -s 0 -d 1 -p cbr -e 532 -c 2 -a 0 -i 25 -k RTR 
- -t 15.348368455 -s 0 -d 1 -p cbr -e 532 -c 2 -a 0 -i 25 -k RTR
h -t 15.348368455 -s 0 -d 1 -p cbr -e 532 -c 2 -a 0 -i 25 -k RTR
+ -t 15.354138455 -s 1 -d 2 -p cbr -e 532 -c 2 -a 0 -i 25 -k RTR 
- -t 15.354138455 -s 1 -d 2 -p cbr -e 532 -c 2 -a 0 -i 25 -k RTR
h -t 15.354138455 -s 1 -d 2 -p cbr -e 532 -c 2 -a 0 -i 25 -k RTR
+ -t 15.359852455 -s 2 -d 7 -p cbr -e 532 -c 2 -a 0 -i 25 -k RTR 
- -t 15.359852455 -s 2 -d 7 -p cbr -e 532 -c 2 -a 0 -i 25 -k RTR
h -t 15.359852455 -s 2 -d 7 -p cbr -e 532 -c 2 -a 0 -i 25 -k RTR
+ -t 15.365904024 -s 1 -d -1 -p cbr -e 512 -c 2 -a 0 -i 26 -k AGT 
- -t 15.365904024 -s 1 -d -1 -p cbr -e 512 -c 2 -a 0 -i 26 -k AGT
h -t 15.365904024 -s 1 -d -1 -p cbr -e 512 -c 2 -a 0 -i 26 -k AGT
+ -t 15.365904024 -s 1 -d 6 -p cbr -e 532 -c 2 -a 0 -i 26 -k RTR 
- -t 15.365904024 -s 1 -d 6 -p cbr -e 532 -c 2 -a 0 -i 26 -k RTR
h -t 15.365904024 -s 1 -d 6 -p cbr -e 532 -c 2 -a 0 -i 26 -k RTR
r -t 15.366066455 -s 7 -d 7 -p cbr -e 512 -c 2 -a 0 -i 25 -k AGT
r -t 15.372745398 -s 6 -d 6 -p cbr -e 512 -c 2 -a 0 -i 26 -k AGT
+ -t 15.399269755 -s 1 -d -1 -p cbr -e 512 -c 2 -a 0 -i 27 -k AGT 
- -t 15.399269755 -s 1 -d -1 -p cbr -e 512 -c 2 -a 0 -i 27 -k AGT
h -t 15.399269755 -s 1 -d -1 -p cbr -e 512 -c 2 -a 0 -i 27 -k AGT
+ -t 15.399269755 -s 1 -d 6 -p cbr -e 532 -c 2 -a 0 -i 27 -k RTR 
- -t 15.399269755 -s 1 -d 6 -p cbr -e 532 -c 2 -a 0 -i 27 -k RTR
h -t 15.399269755 -s 1 -d 6 -p cbr -e 532 -c 2 -a 0 -i 27 -k RTR
r -t 15.404739755 -s 6 -d 6 -p cbr -e 512 -c 2 -a 0 -i 27 -k AGT
+ -t 15.410193058 -s 0 -d -1 -p cbr -e 512 -c 2 -a 0 -i 28 -k AGT 
- -t 15.410193058 -s 0 -d -1 -p cbr -e 512 -c 2 -a 0 -i 28 -k AGT
h -t 15.410193058 -s 0 -d -1 -p cbr -e 512 -c 2 -a 0 -i 28 -k AGT
+ -t 15.410193058 -s 0 -d 1 -p cbr -e 532 -c 2 -a 0 -i 28 -k RTR 
- -t 15.410193058 -s 0 -d 1 -p cbr -e 532 -c 2 -a 0 -i 28 -k RTR
h -t 15.410193058 -s 0 -d 1 -p cbr -e 532 -c 2 -a 0 -i 28 -k RTR
+ -t 15.415683058 -s 1 -d 2 -p cbr -e 532 -c 2 -a 0 -i 28 -k RTR 
- -t 15.415683058 -s 1 -d 2 -p cbr -e 532 -c 2 -a 0 -i 28 -k RTR
h -t 15.415683058 -s 1 -d 2 -p cbr -e 532 -c 2 -a 0 -i 28 -k RTR
+ -t 15.421537058 -s 2 -d 7 -p cbr -e 532 -c 2 -a 0 -i 28 -k RTR 
- -t 15.421537058 -s 2 -d 7 -p cbr -e 532 -c 2 -a 0 -i 28 -k RTR
h -t 15.421537058 -s 2 -d 7 -p cbr -e 532 -c 2 -a 0 -i 28 -k RTR
r -t 15.427451058 -s 7 -d 7 -p cbr -e 512 -c 2 -a 0 -i 28 -k AGT
+ -t 15.470973652 -s 1 -d -1 -p cbr -e 512 -c 2 -a 0 -i 29 -k AGT 
- -t 15.470973652 -s 1 -d -1 -p cbr -e 512 -c 2 -a 0 -i 29 -k AGT
h -t 15.470973652 -s 1 -d -1 -p cbr -e 512 -c 2 -a 0 -i 29 -k AGT
+ -t 15.470973652 -s 1 -d 6 -p cbr -e 532 -c 2 -a 0 -i 29 -k RTR 
- -t 15.470973652 -s 1 -d 6 -p cbr -e 532 -c 2 -a 0 -i 29 -k RTR
h -t 15.470973652 -s 1 -d 6 -p cbr -e 532 -c 2 -a 0 -i 29 -k RTR
r -t 15.476683652 -s 6 -d 6 -p cbr -e 512 -c 2 -a 0 -i 29 -k AGT
+ -t 15.480163734 -s 0 -d -1 -p cbr -e 512 -c 2 -a 0 -i 30 -k AGT 
- -t 15.480163734 -s 0 -d -1 -p cbr -e 512 -c 2 -a 0 -i 30 -k AGT
h -t 15.480163734 -s 0 -d -1 -p cbr -e 512 -c 2 -a 0 -i 30 -k AGT
+ -t 15.480163734 -s 0 -d 1 -p cbr -e 532 -c 2 -a 0 -i 30 -k RTR 
- -t 15.480163734 -s 0 -d 1 -p cbr -e 532 -c 2 -a 0 -i 30 -k RTR
h -t 15.480163734 -s 0 -d 1 -p cbr -e 532 -c 2 -a 0 -i 30 -k RTR
+ -t 15.486173734 -s 1 -d 2 -p cbr -e 532 -c 2 -a 0 -i 30 -k RTR 
- -t 15.486173734 -s 1 -d 2 -p cbr -e 532 -c 2 -a 0 -i 30 -k RTR
h -t 15.486173734 -s 1 -d 2 -p cbr -e 532 -c 2 -a 0 -i 30 -k RTR
+ -t 15.491907734 -s 2 -d 7 -p cbr -e 532 -c 2 -a 0 -i 30 -k RTR 
- -t 15.491907734 -s 2 -d 7 -p cbr -e 532 -c 2 -a 0 -i 30 -k RTR
h -t 15.491907734 -s 2 -d 7 -p cbr -e 532 -c 2 -a 0 -i 30 -k RTR
r -t 15.497841734 -s 7 -d 7 -p cbr -e 512 -c 2 -a 0 -i 30 -k AGT
+ -t 15.529153222 -s 0 -d -1 -p cbr -e 512 -c 2 -a 0 -i 31 -k AGT 
- -t 15.529153222 -s 0 -d -1 -p cbr -e 512 -c 2 -a 0 -i 31 -k AGT
h -t 15.529153222 -s 0 -d -1 -p cbr -e 512 -c 2 -a 0 -i 31 -k AGT
+ -t 15.529153222 -s 0 -d 1 -p cbr -e 532 -c 2 -a 0 -i 31 -k RTR 
- -t 15.529153222 -s 0 -d 1 -p cbr -e 532 -c 2 -a 0 -i 31 -k RTR
h -t 15.529153222 -s 0 -d 1 -p cbr -e 532 -c 2 -a 0 -i 31 -k RTR
+ -t 15.534643222 -s 1 -d 2 -p cbr -e 532 -c 2 -a 0 -i 31 -k RTR 
- -t 15.534643222 -s 1 -d 2 -p cbr -e 532 -c 2 -a 0 -i 31 -k RTR
h -t 15.534643222 -s 1 -d 2 -p cbr -e 532 -c 2 -a 0 -i 31 -k RTR
+ -t 15.538383065 -s 1 -d -1 -p cbr -e 512 -c 2 -a 0 -i 32 -k AGT 
- -t 15.538383065 -s 1 -d -1 -p cbr -e 512 -c 2 -a 0 -i 32 -k AGT
h -t 15.538383065 -s 1 -d -1 -p cbr -e 512 -c 2 -a 0 -i 32 -k AGT
+ -t 15.538383065 -s 1 -d 6 -p cbr -e 532 -c 2 -a 0 -i 32 -k RTR 
- -t 15.538383065 -s 1 -d 6 -p cbr -e 532 -c 2 -a 0 -i 32 -k RTR
h -t 15.538383065 -s 1 -d 6 -p cbr -e 532 -c 2 -a 0 -i 32 -k RTR
+ -t 15.540817222 -s 2 -d 7 -p cbr -e 532 -c 2 -a 0 -i 31 -k RTR 
- -t 15.540817222 -s 2 -d 7 -p cbr -e 532 -c 2 -a 0 -i 31 -k RTR
h -t 15.540817222 -s 2 -d 7 -p cbr -e 532 -c 2 -a 0 -i 31 -k RTR
r -t 15.546831889 -s 6 -d 6 -p cbr -e 512 -c 2 -a 0 -i 32 -k AGT
r -t 15.552930832 -s 7 -d 7 -p cbr -e 512 -c 2 -a 0 -i 31 -k AGT
+ -t 15.569821198 -s 0 -d -1 -p cbr -e 512 -c 2 -a 0 -i 33 -k AGT 
- -t 15.569821198 -s 0 -d -1 -p cbr -e 512 -c 2 -a 0 -i 33 -k AGT
h -t 15.569821198 -s 0 -d -1 -p cbr -e 512 -c 2 -a 0 -i 33 -k AGT
+ -t 15.569821198 -s 0 -d 1 -p cbr -e 532 -c 2 -a 0 -i 33 -k RTR 
- -t 15.569821198 -s 0 -d 1 -p cbr -e 532 -c 2 -a 0 -i 33 -k RTR
h -t 15.569821198 -s 0 -d 1 -p cbr -e 532 -c 2 -a 0 -i 33 -k RTR
+ -t 15.575831198 -s 1 -d 2 -p cbr -e 532 -c 2 -a 0 -i 33 -k RTR 
- -t 15.575831198 -s 1 -d 2 -p cbr -e 532 -c 2 -a 0 -i 33 -k RTR
h -t 15.575831198 -s 1 -d 2 -p cbr -e 532 -c 2 -a 0 -i 33 -k RTR
+ -t 15.581625198 -s 2 -d 7 -p cbr -e 532 -c 2 -a 0 -i 33 -k RTR 
- -t 15.581625198 -s 2 -d 7 -p cbr -e 532 -c 2 -a 0 -i 33 -k RTR
h -t 15.581625198 -s 2 -d 7 -p cbr -e 532 -c 2 -a 0 -i 33 -k RTR
r -t 15.587619198 -s 7 -d 7 -p cbr -e 512 -c 2 -a 0 -i 33 -k AGT
+ -t 15.591110850 -s 1 -d -1 -p cbr -e 512 -c 2 -a 0 -i 34 -k AGT 
- -t 15.591110850 -s 1 -d -1 -p cbr -e 512 -c 2 -a 0 -i 34 -k AGT
h -t 15.591110850 -s 1 -d -1 -p cbr -e 512 -c 2 -a 0 -i 34 -k AGT
+ -t 15.591110850 -s 1 -d 6 -p cbr -e 532 -c 2 -a 0 -i 34 -k RTR 
- -t 15.591110850 -s 1 -d 6 -p cbr -e 532 -c 2 -a 0 -i 34 -k RTR
h -t 15.591110850 -s 1 -d 6 -p cbr -e 532 -c 2 -a 0 -i 34 -k RTR
r -t 15.596720850 -s 6 -d 6 -p cbr -e 512 -c 2 -a 0 -i 34 -k AGT
+ -t 15.602869983 -s 0 -d -1 -p cbr -e 512 -c 2 -a 0 -i 35 -k AGT 
- -t 15.602869983 -s 0 -d -1 -p cbr -e 512 -c 2 -a 0 -i 35 -k AGT
h -t 15.602869983 -s 0 -d -1 -p cbr -e 512 -c 2 -a 0 -i 35 -k AGT
+ -t 15.602869983 -s 0 -d 1 -p cbr -e 532 -c 2 -a 0 -i 35 -k RTR 
- -t 15.602869983 -s 0 -d 1 -p cbr -e 532 -c 2 -a 0 -i 35 -k RTR
h -t 15.602869983 -s 0 -d 1 -p cbr -e 532 -c 2 -a 0 -i 35 -k RTR
+ -t 15.608439983 -s 1 -d 2 -p cbr -e 532 -c 2 -a 0 -i 35 -k RTR 
- -t 15.608439983 -s 1 -d 2 -p cbr -e 532 -c 2 -a 0 -i 35 -k RTR
h -t 15.608439983 -s 1 -d 2 -p cbr -e 532 -c 2 -a 0 -i 35 -k RTR
+ -t 15.614273983 -s 2 -d 7 -p cbr -e 532 -c 2 -a 0 -i 35 -k RTR 
- -t 15.614273983 -s 2 -d 7 -p cbr -e 532 -c 2 -a 0 -i 35 -k RTR
h -t 15.614273983 -s 2 -d 7 -p cbr -e 532 -c 2 -a 0 -i 35 -k RTR
r -t 15.620167983 -s 7 -d 7 -p cbr -e 512 -c 2 -a 0 -i 35 -k AGT
+ -t 15.644497459 -s 1 -d -1 -p cbr -e 512 -c 2 -a 0 -i 36 -k AGT 
- -t 15.644497459 -s 1 -d -1 -p cbr -e 512 -c 2 -a 0 -i 36 -k AGT
h -t 15.644497459 -s 1 -d -1 -p cbr -e 512 -c 2 -a 0 -i 36 -k AGT
+ -t 15.644497459 -s 1 -d 6 -p cbr -e 532 -c 2 -a 0 -i 36 -k RTR 
- -t 15.644497459 -s 1 -d 6 -p cbr -e 532 -c 2 -a 0 -i 36 -k RTR
h -t 15.644497459 -s 1 -d 6 -p cbr -e 532 -c 2 -a 0 -i 36 -k RTR
r -t 15.650467459 -s 6 -d 6 -p cbr -e 512 -c 2 -a 0 -i 36 -k AGT
+ -t 15.652848158 -s 0 -d -1 -p cbr -e 512 -c 2 -a 0 -i 37 -k AGT 
- -t 15.652848158 -s 0 -d -1 -p cbr -e 512 -c 2 -a 0 -i 37 -k AGT
h -t 15.652848158 -s 0 -d -1 -p cbr -e 512 -c 2 -a 0 -i 37 -k AGT
+ -t 15.652848158 -s 0 -d 1 -p cbr -e 532 -c 2 -a 0 -i 37 -k RTR 
- -t 15.652848158 -s 0 -d 1 -p cbr -e 532 -c 2 -a 0 -i 37 -k RTR
h -t 15.652848158 -s 0 -d 1 -p cbr -e 532 -c 2 -a 0 -i 37 -k RTR
+ -t 15.658718158 -s 1 -d 2 -p cbr -e 532 -c 2 -a 0 -i 37 -k RTR 
- -t 15.658718158 -s 1 -d 2 -p cbr -e 532 -c 2 -a 0 -i 37 -k RTR
h -t 15.658718158 -s 1 -d 2 -p cbr -e 532 -c 2 -a 0 -i 37 -k RTR
+ -t 15.664652158 -s 2 -d 7 -p cbr -e 532 -c 2 -a 0 -i 37 -k RTR 
- -t 15.664652158 -s 2 -d 7 -p cbr -e 532 -c 2 -a 0 -i 37 -k RTR
h -t 15.664652158 -s 2 -d 7 -p cbr -e 532 -c 2 -a 0 -i 37 -k RTR
r -t 15.670726158 -s 7 -d 7 -p cbr -e 512 -c 2 -a 0 -i 37 -k AGT
+ -t 15.681740907 -s 0 -d -1 -p cbr -e 512 -c 2 -a 0 -i 38 -k AGT 
- -t 15.681740907 -s 0 -d -1 -p cbr -e 512 -c 2 -a 0 -i 38 -k AGT
h -t 15.681740907 -s 0 -d -1 -p cbr -e 512 -c 2 -a 0 -i 38 -k AGT
+ -t 15.681740907 -s 0 -d 1 -p cbr -e 532 -c 2 -a 0 -i 38 -k RTR 
- -t 15.681740907 -s 0 -d 1 -p cbr -e 532 -c 2 -a 0 -i 38 -k RTR
h -t 15.681740907 -s 0 -d 1 -p cbr -e 532 -c 2 -a 0 -i 38 -k RTR
+ -t 15.687330907 -s 1 -d 2 -p cbr -e 532 -c 2 -a 0 -i 38 -k RTR 
- -t 15.687330907 -s 1 -d 2 -p cbr -e 532 -c 2 -a 0 -i 38 -k RTR
h -t 15.687330907 -s 1 -d 2 -p cbr -e 532 -c 2 -a 0 -i 38 -k RTR
+ -t 15.693644907 -s 2 -d 7 -p cbr -e 532 -c 2 -a 0 -i 38 -k RTR 
- -t 15.693644907 -s 2 -d 7 -p cbr -e 532 -c 2 -a 0 -i 38 -k RTR
h -t 15.693644907 -s 2 -d 7 -p cbr -e 532 -c 2 -a 0 -i 38 -k RTR
r -t 15.699778907 -s 7 -d 7 -p cbr -e 512 -c 2 -a 0 -i 38 -k AGT
+ -t 15.708257843 -s 1 -d -1 -p cbr -e 512 -c 2 -a 0 -i 39 -k AGT 
- -t 15.708257843 -s 1 -d -1 -p cbr -e 512 -c 2 -a 0 -i 39 -k AGT
h -t 15.708257843 -s 1 -d -1 -p cbr -e 512 -c 2 -a 0 -i 39 -k AGT
+ -t 15.708257843 -s 1 -d 6 -p cbr -e 532 -c 2 -a 0 -i 39 -k RTR 
- -t 15.708257843 -s 1 -d 6 -p cbr -e 532 -c 2 -a 0 -i 39 -k RTR
h -t 15.708257843 -s 1 -d 6 -p cbr -e 532 -c 2 -a 0 -i 39 -k RTR
r -t 15.714067843 -s 6 -d 6 -p cbr -e 512 -c 2 -a 0 -i 39 -k AGT
+ -t 15.742580718 -s 0 -d -1 -p cbr -e 512 -c 2 -a 0 -i 40 -k AGT 
- -t 15.742580718 -s 0 -d -1 -p cbr -e 512 -c 2 -a 0 -i 40 -k AGT
h -t 15.742580718 -s 0 -d -1 -p cbr -e 512 -c 2 -a 0 -i 40 -k AGT
+ -t 15.742580718 -s 0 -d 1 -p cbr -e 532 -c 2 -a 0 -i 40 -k RTR 
- -t 15.742580718 -s 0 -d 1 -p cbr -e 532 -c 2 -a 0 -i 40 -k RTR
h -t 15.742580718 -s 0 -d 1 -p cbr -e 532 -c 2 -a 0 -i 40 -k RTR
+ -t 15.748590718 -s 1 -d 2 -p cbr -e 532 -c 2 -a 0 -i 40 -k RTR 
- -t 15.748590718 -s 1 -d 2 -p cbr -e 532 -c 2 -a 0 -i 40 -k RTR
h -t 15.748590718 -s 1 -d 2 -p cbr -e 532 -c 2 -a 0 -i 40 -k RTR
+ -t 15.754404718 -s 2 -d 7 -p cbr -e 532 -c 2 -a 0 -i 40 -k RTR 
- -t 15.754404718 -s 2 -d 7 -p cbr -e 532 -c 2 -a 0 -i 40 -k RTR
h -t 15.754404718 -s 2 -d 7 -p cbr -e 532 -c 2 -a 0 -i 40 -k RTR
r -t 15.760418718 -s 7 -d 7 -p cbr -e 512 -c 2 -a 0 -i 40 -k AGT
+ -t 15.760718990 -s 1 -d -1 -p cbr -e 512 -c 2 -a 0 -i 41 -k AGT 
- -t 15.760718990 -s 1 -d -1 -p cbr -e 512 -c 2 -a 0 -i 41 -k AGT
h -t 15.760718990 -s 1 -d -1 -p cbr -e 512 -c 2 -a 0 -i 41 -k AGT
+ -t 15.760718990 -s 1 -d 6 -p cbr -e 532 -c 2 -a 0 -i 41 -k RTR 
- -t 15.760718990 -s 1 -d 6 -p cbr -e 532 -c 2 -a 0 -i 41 -k RTR
h -t 15.760718990 -s 1 -d 6 -p cbr -e 532 -c 2 -a 0 -i 41 -k RTR
r -t 15.766677660 -s 6 -d 6 -p cbr -e 512 -c 2 -a 0 -i 41 -k AGT
+ -t 15.785803377 -s 1 -d -1 -p cbr -e 512 -c 2 -a 0 -i 42 -k AGT 
- -t 15.785803377 -s 1 -d -1 -p cbr -e 512 -c 2 -a 0 -i 42 -k AGT
h -t 15.785803377 -s 1 -d -1 -p cbr -e 512 -c 2 -a 0 -i 42 -k AGT
+ -t 15.785803377 -s 1 -d 6 -p cbr -e 532 -c 2 -a 0 -i 42 -k RTR 
- -t 15.785803377 -s 1 -d 6 -p cbr -e 532 -c 2 -a 0 -i 42 -k RTR
h -t 15.785803377 -s 1 -d 6 -p cbr -e 532 -c 2 -a 0 -i 42 -k RTR
r -t 15.791333377 -s 6 -d 6 -p cbr -e 512 -c 2 -a 0 -i 42 -k AGT
+ -t 15.804616402 -s 0 -d -1 -p cbr -e 512 -c 2 -a 0 -i 43 -k AGT 
- -t 15.804616402 -s 0 -d -1 -p cbr -e 512 -c 2 -a 0 -i 43 -k AGT
h -t 15.804616402 -s 0 -d -1 -p cbr -e 512 -c 2 -a 0 -i 43 -k AGT
+ -t 15.804616402 -s 0 -d 1 -p cbr -e 532 -c 2 -a 0 -i 43 -k RTR 
- -t 15.804616402 -s 0 -d 1 -p cbr -e 532 -c 2 -a 0 -i 43 -k RTR
h -t 15.804616402 -s 0 -d 1 -p cbr -e 532 -c 2 -a 0 -i 43 -k RTR
+ -t 15.810626402 -s 1 -d 2 -p cbr -e 532 -c 2 -a 0 -i 43 -k RTR 
- -t 15.810626402 -s 1 -d 2 -p cbr -e 532 -c 2 -a 0 -i 43 -k RTR
h -t 15.810626402 -s 1 -d 2 -p cbr -e 532 -c 2 -a 0 -i 43 -k RTR
+ -t 15.816560402 -s 2 -d 7 -p cbr -e 532 -c 2 -a 0 -i 43 -k RTR 
- -t 15.816560402 -s 2 -d 7 -p cbr -e 532 -c 2 -a 0 -i 43 -k RTR
h -t 15.816560402 -s 2 -d 7 -p cbr -e 532 -c 2 -a 0 -i 43 -k RTR
r -t 15.822294402 -s 7 -d 7 -p cbr -e 512 -c 2 -a 0 -i 43 -k AGT
+ -t 15.847835530 -s 0 -d -1 -p cbr -e 512 -c 2 -a 0 -i 44 -k AGT 
- -t 15.847835530 -s 0 -d -1 -p cbr -e 512 -c 2 -a 0 -i 44 -k AGT
h -t 15.847835530 -s 0 -d -1 -p cbr -e 512 -c 2 -a 0 -i 44 -k AGT
+ -t 15.847835530 -s 0 -d 1 -p cbr -e 532 -c 2 -a 0 -i 44 -k RTR 
- -t 15.847835530 -s 0 -d 1 -p cbr -e 532 -c 2 -a 0 -i 44 -k RTR
h -t 15.847835530 -s 0 -d 1 -p cbr -e 532 -c 2 -a 0 -i 44 -k RTR
+ -t 15.853825530 -s 1 -d 2 -p cbr -e 532 -c 2 -a 0 -i 44 -k RTR 
- -t 15.853825530 -s 1 -d 2 -p cbr -e 532 -c 2 -a 0 -i 44 -k RTR
h -t 15.853825530 -s 1 -d 2 -p cbr -e 532 -c 2 -a 0 -i 44 -k RTR
+ -t 15.854120468 -s 1 -d -1 -p cbr -e 512 -c 2 -a 0 -i 45 -k AGT 
- -t 15.854120468 -s 1 -d -1 -p cbr -e 512 -c 2 -a 0 -i 45 -k AGT
h -t 15.854120468 -s 1 -d -1 -p cbr -e 512 -c 2 -a 0 -i 45 -k AGT
+ -t 15.854120468 -s 1 -d 6 -p cbr -e 532 -c 2 -a 0 -i 45 -k RTR 
- -t 15.854120468 -s 1 -d 6 -p cbr -e 532 -c 2 -a 0 -i 45 -k RTR
h -t 15.854120468 -s 1 -d 6 -p cbr -e 532 -c 2 -a 0 -i 45 -k RTR
+ -t 15.859899530 -s 2 -d 7 -p cbr -e 532 -c 2 -a 0 -i 44 -k RTR 
- -t 15.859899530 -s 2 -d 7 -p cbr -e 532 -c 2 -a 0 -i 44 -k RTR
h -t 15.859899530 -s 2 -d 7 -p cbr -e 532 -c 2 -a 0 -i 44 -k RTR
r -t 15.865973530 -s 7 -d 7 -p cbr -e 512 -c 2 -a 0 -i 44 -k AGT
r -t 15.872292472 -s 6 -d 6 -p cbr -e 512 -c 2 -a 0 -i 45 -k AGT
+ -t 15.919526622 -s 0 -d -1 -p cbr -e 512 -c 2 -a 0 -i 46 -k AGT 
- -t 15.919526622 -s 0 -d -1 -p cbr -e 512 -c 2 -a 0 -i 46 -k AGT
h -t 15.919526622 -s 0 -d -1 -p cbr -e 512 -c 2 -a 0 -i 46 -k AGT
+ -t 15.919526622 -s 0 -d 1 -p cbr -e 532 -c 2 -a 0 -i 46 -k RTR 
- -t 15.919526622 -s 0 -d 1 -p cbr -e 532 -c 2 -a 0 -i 46 -k RTR
h -t 15.919526622 -s 0 -d 1 -p cbr -e 532 -c 2 -a 0 -i 46 -k RTR
+ -t 15.924590763 -s 1 -d -1 -p cbr -e 512 -c 2 -a 0 -i 47 -k AGT 
- -t 15.924590763 -s 1 -d -1 -p cbr -e 512 -c 2 -a 0 -i 47 -k AGT
h -t 15.924590763 -s 1 -d -1 -p cbr -e 512 -c 2 -a 0 -i 47 -k AGT
+ -t 15.924590763 -s 1 -d 6 -p cbr -e 532 -c 2 -a 0 -i 47 -k RTR 
- -t 15.924590763 -s 1 -d 6 -p cbr -e 532 -c 2 -a 0 -i 47 -k RTR
h -t 15.924590763 -s 1 -d 6 -p cbr -e 532 -c 2 -a 0 -i 47 -k RTR
+ -t 15.925096622 -s 1 -d 2 -p cbr -e 532 -c 2 -a 0 -i 46 -k RTR 
- -t 15.925096622 -s 1 -d 2 -p cbr -e 532 -c 2 -a 0 -i 46 -k RTR
h -t 15.925096622 -s 1 -d 2 -p cbr -e 532 -c 2 -a 0 -i 46 -k RTR
r -t 15.931050622 -s 6 -d 6 -p cbr -e 512 -c 2 -a 0 -i 47 -k AGT
+ -t 15.937265289 -s 2 -d 7 -p cbr -e 532 -c 2 -a 0 -i 46 -k RTR 
- -t 15.937265289 -s 2 -d 7 -p cbr -e 532 -c 2 -a 0 -i 46 -k RTR
h -t 15.937265289 -s 2 -d 7 -p cbr -e 532 -c 2 -a 0 -i 46 -k RTR
r -t 15.943299289 -s 7 -d 7 -p cbr -e 512 -c 2 -a 0 -i 46 -k AGT
+ -t 15.969572365 -s 1 -d -1 -p cbr -e 512 -c 2 -a 0 -i 48 -k AGT 
- -t 15.969572365 -s 1 -d -1 -p cbr -e 512 -c 2 -a 0 -i 48 -k AGT
h -t 15.969572365 -s 1 -d -1 -p cbr -e 512 -c 2 -a 0 -i 48 -k AGT
+ -t 15.969572365 -s 1 -d 6 -p cbr -e 532 -c 2 -a 0 -i 48 -k RTR 
- -t 15.969572365 -s 1 -d 6 -p cbr -e 532 -c 2 -a 0 -i 48 -k RTR
h -t 15.969572365 -s 1 -d 6 -p cbr -e 532 -c 2 -a 0 -i 48 -k RTR
r -t 15.975022365 -s 6 -d 6 -p cbr -e 512 -c 2 -a 0 -i 48 -k AGT
+ -t 15.988662373 -s 0 -d -1 -p cbr -e 512 -c 2 -a 0 -i 49 -k AGT 
- -t 15.988662373 -s 0 -d -1 -p cbr -e 512 -c 2 -a 0 -i 49 -k AGT
h -t 15.988662373 -s 0 -d -1 -p cbr -e 512 -c 2 -a 0 -i 49 -k AGT
+ -t 15.988662373 -s 0 -d 1 -p cbr -e 532 -c 2 -a 0 -i 49 -k RTR 
- -t 15.988662373 -s 0 -d 1 -p cbr -e 532 -c 2 -a 0 -i 49 -k RTR
h -t 15.988662373 -s 0 -d 1 -p cbr -e 532 -c 2 -a 0 -i 49 -k RTR