n -t * -s 0  -x 100 -y 100 -Z 0 -z 30  -v circle -c black
n -t * -s 1  -x 300 -y 100 -Z 0 -z 30  -v circle -c black
n -t * -s 2  -x 500 -y 100 -Z 0 -z 30  -v circle -c black
n -t * -s 3  -x 100 -y 300 -Z 0 -z 30  -v circle -c black
n -t * -s 4  -x 300 -y 300 -Z 0 -z 30  -v circle -c black
n -t * -s 5  -x 500 -y 300 -Z 0 -z 30  -v circle -c black
n -t * -s 6  -x 100 -y 400 -Z 0 -z 30  -v circle -c black
n -t * -s 7  -x 300 -y 400 -Z 0 -z 30  -v circle -c black
n -t * -s 8  -x 500 -y 400 -Z 0 -z 30  -v circle -c black
n -t * -s 9  -x 100 -y 500 -Z 0 -z 30  -v circle -c black
n -t * -s 10  -x 300 -y 500 -Z 0 -z 30  -v circle -c black
n -t * -s 11  -x 500 -y 500 -Z 0 -z 30  -v circle -c black
V -t * -v 1.0a5 -a 0
W -t * -x 500 -y 500
A -t * -n 1 -p 0 -o 0xffffffff -c 31 -a 1
A -t * -h 1 -m 2147483647 -s 0
+ -t 15.000000000 -s 0 -d -1 -p cbr -e 512 -c 2 -a 0 -i 0 -k AGT 
- -t 15.000000000 -s 0 -d -1 -p cbr -e 512 -c 2 -a 0 -i 0 -k AGT
h -t 15.000000000 -s 0 -d -1 -p cbr -e 512 -c 2 -a 0 -i 0 -k AGT
+ -t 15.003166890 -s 0 -d -1 -p DSR -e 32 -c 2 -a 0 -i 1 -k RTR 
- -t 15.003166890 -s 0 -d -1 -p DSR -e 32 -c 2 -a 0 -i 1 -k RTR
h -t 15.003166890 -s 0 -d -1 -p DSR -e 32 -c 2 -a 0 -i 1 -k RTR
+ -t 15.046766784 -s 0 -d -1 -p DSR -e 32 -c 2 -a 0 -i 2 -k RTR 
- -t 15.046766784 -s 0 -d -1 -p DSR -e 32 -c 2 -a 0 -i 2 -k RTR
h -t 15.046766784 -s 0 -d -1 -p DSR -e 32 -c 2 -a 0 -i 2 -k RTR
+ -t 15.050923602 -s 1 -d -1 -p DSR -e 48 -c 2 -a 0 -i 2 -k RTR 
- -t 15.050923602 -s 1 -d -1 -p DSR -e 48 -c 2 -a 0 -i 2 -k RTR
h -t 15.050923602 -s 1 -d -1 -p DSR -e 48 -c 2 -a 0 -i 2 -k RTR
+ -t 15.056527038 -s 3 -d -1 -p DSR -e 48 -c 2 -a 0 -i 2 -k RTR 
- -t 15.056527038 -s 3 -d -1 -p DSR -e 48 -c 2 -a 0 -i 2 -k RTR
h -t 15.056527038 -s 3 -d -1 -p DSR -e 48 -c 2 -a 0 -i 2 -k RTR
+ -t 15.060514749 -s 4 -d -1 -p DSR -e 68 -c 2 -a 0 -i 2 -k RTR 
- -t 15.060514749 -s 4 -d -1 -p DSR -e 68 -c 2 -a 0 -i 2 -k RTR
h -t 15.060514749 -s 4 -d -1 -p DSR -e 68 -c 2 -a 0 -i 2 -k RTR
+ -t 15.060819633 -s 2 -d -1 -p DSR -e 68 -c 2 -a 0 -i 2 -k RTR 
- -t 15.060819633 -s 2 -d -1 -p DSR -e 68 -c 2 -a 0 -i 2 -k RTR
h -t 15.060819633 -s 2 -d -1 -p DSR -e 68 -c 2 -a 0 -i 2 -k RTR
+ -t 15.062505627 -s 6 -d -1 -p DSR -e 68 -c 2 -a 0 -i 2 -k RTR 
- -t 15.062505627 -s 6 -d -1 -p DSR -e 68 -c 2 -a 0 -i 2 -k RTR
h -t 15.062505627 -s 6 -d -1 -p DSR -e 68 -c 2 -a 0 -i 2 -k RTR
+ -t 15.062532591 -s 10 -d 4 -p DSR -e 60 -c 2 -a 0 -i 3 -k RTR 
- -t 15.062532591 -s 10 -d 4 -p DSR -e 60 -c 2 -a 0 -i 3 -k RTR
h -t 15.062532591 -s 10 -d 4 -p DSR -e 60 -c 2 -a 0 -i 3 -k RTR
+ -t 15.062869701 -s 7 -d -1 -p DSR -e 68 -c 2 -a 0 -i 2 -k RTR 
- -t 15.062869701 -s 7 -d -1 -p DSR -e 68 -c 2 -a 0 -i 2 -k RTR
h -t 15.062869701 -s 7 -d -1 -p DSR -e 68 -c 2 -a 0 -i 2 -k RTR
+ -t 15.062986886 -s 5 -d -1 -p DSR -e 92 -c 2 -a 0 -i 2 -k RTR 
- -t 15.062986886 -s 5 -d -1 -p DSR -e 92 -c 2 -a 0 -i 2 -k RTR
h -t 15.062986886 -s 5 -d -1 -p DSR -e 92 -c 2 -a 0 -i 2 -k RTR
+ -t 15.064518433 -s 9 -d -1 -p DSR -e 68 -c 2 -a 0 -i 2 -k RTR 
- -t 15.064518433 -s 9 -d -1 -p DSR -e 68 -c 2 -a 0 -i 2 -k RTR
h -t 15.064518433 -s 9 -d -1 -p DSR -e 68 -c 2 -a 0 -i 2 -k RTR
+ -t 15.068011066 -s 0 -d -1 -p cbr -e 512 -c 2 -a 0 -i 6 -k AGT 
- -t 15.068011066 -s 0 -d -1 -p cbr -e 512 -c 2 -a 0 -i 6 -k AGT
h -t 15.068011066 -s 0 -d -1 -p cbr -e 512 -c 2 -a 0 -i 6 -k AGT
+ -t 15.068552617 -s 8 -d -1 -p DSR -e 92 -c 2 -a 0 -i 2 -k RTR 
- -t 15.068552617 -s 8 -d -1 -p DSR -e 92 -c 2 -a 0 -i 2 -k RTR
h -t 15.068552617 -s 8 -d -1 -p DSR -e 92 -c 2 -a 0 -i 2 -k RTR
+ -t 15.069370965 -s 10 -d 6 -p DSR -e 60 -c 2 -a 0 -i 5 -k RTR 
- -t 15.069370965 -s 10 -d 6 -p DSR -e 60 -c 2 -a 0 -i 5 -k RTR
h -t 15.069370965 -s 10 -d 6 -p DSR -e 60 -c 2 -a 0 -i 5 -k RTR
+ -t 15.069462719 -s 11 -d -1 -p DSR -e 120 -c 2 -a 0 -i 2 -k RTR 
- -t 15.069462719 -s 11 -d -1 -p DSR -e 120 -c 2 -a 0 -i 2 -k RTR
h -t 15.069462719 -s 11 -d -1 -p DSR -e 120 -c 2 -a 0 -i 2 -k RTR
+ -t 15.070108771 -s 4 -d 1 -p DSR -e 60 -c 2 -a 0 -i 3 -k RTR 
- -t 15.070108771 -s 4 -d 1 -p DSR -e 60 -c 2 -a 0 -i 3 -k RTR
h -t 15.070108771 -s 4 -d 1 -p DSR -e 60 -c 2 -a 0 -i 3 -k RTR
+ -t 15.070525182 -s 10 -d 9 -p DSR -e 60 -c 2 -a 0 -i 8 -k RTR 
- -t 15.070525182 -s 10 -d 9 -p DSR -e 60 -c 2 -a 0 -i 8 -k RTR
h -t 15.070525182 -s 10 -d 9 -p DSR -e 60 -c 2 -a 0 -i 8 -k RTR
+ -t 15.072106771 -s 1 -d 0 -p DSR -e 60 -c 2 -a 0 -i 3 -k RTR 
- -t 15.072106771 -s 1 -d 0 -p DSR -e 60 -c 2 -a 0 -i 3 -k RTR
h -t 15.072106771 -s 1 -d 0 -p DSR -e 60 -c 2 -a 0 -i 3 -k RTR
+ -t 15.073279841 -s 10 -d 7 -p DSR -e 60 -c 2 -a 0 -i 4 -k RTR 
- -t 15.073279841 -s 10 -d 7 -p DSR -e 60 -c 2 -a 0 -i 4 -k RTR
h -t 15.073279841 -s 10 -d 7 -p DSR -e 60 -c 2 -a 0 -i 4 -k RTR
+ -t 15.077579576 -s 6 -d 3 -p DSR -e 60 -c 2 -a 0 -i 5 -k RTR 
- -t 15.077579576 -s 6 -d 3 -p DSR -e 60 -c 2 -a 0 -i 5 -k RTR
h -t 15.077579576 -s 6 -d 3 -p DSR -e 60 -c 2 -a 0 -i 5 -k RTR
+ -t 15.077944702 -s 10 -d 8 -p DSR -e 68 -c 2 -a 0 -i 10 -k RTR 
- -t 15.077944702 -s 10 -d 8 -p DSR -e 68 -c 2 -a 0 -i 10 -k RTR
h -t 15.077944702 -s 10 -d 8 -p DSR -e 68 -c 2 -a 0 -i 10 -k RTR
+ -t 15.079536576 -s 3 -d 0 -p DSR -e 60 -c 2 -a 0 -i 5 -k RTR 
- -t 15.079536576 -s 3 -d 0 -p DSR -e 60 -c 2 -a 0 -i 5 -k RTR
h -t 15.079536576 -s 3 -d 0 -p DSR -e 60 -c 2 -a 0 -i 5 -k RTR
+ -t 15.081654823 -s 10 -d 11 -p DSR -e 76 -c 2 -a 0 -i 9 -k RTR 
- -t 15.081654823 -s 10 -d 11 -p DSR -e 76 -c 2 -a 0 -i 9 -k RTR
h -t 15.081654823 -s 10 -d 11 -p DSR -e 76 -c 2 -a 0 -i 9 -k RTR
+ -t 15.081899519 -s 0 -d 1 -p cbr -e 556 -c 2 -a 0 -i 0 -k RTR 
- -t 15.081899519 -s 0 -d 1 -p cbr -e 556 -c 2 -a 0 -i 0 -k RTR
h -t 15.081899519 -s 0 -d 1 -p cbr -e 556 -c 2 -a 0 -i 0 -k RTR
+ -t 15.087805519 -s 1 -d 4 -p cbr -e 556 -c 2 -a 0 -i 0 -k RTR 
- -t 15.087805519 -s 1 -d 4 -p cbr -e 556 -c 2 -a 0 -i 0 -k RTR
h -t 15.087805519 -s 1 -d 4 -p cbr -e 556 -c 2 -a 0 -i 0 -k RTR
+ -t 15.094171519 -s 4 -d 10 -p cbr -e 556 -c 2 -a 0 -i 0 -k RTR 
- -t 15.094171519 -s 4 -d 10 -p cbr -e 556 -c 2 -a 0 -i 0 -k RTR
h -t 15.094171519 -s 4 -d 10 -p cbr -e 556 -c 2 -a 0 -i 0 -k RTR
r -t 15.102630738 -s 10 -d 10 -p cbr -e 512 -c 2 -a 0 -i 0 -k AGT
+ -t 15.104747738 -s 7 -d 3 -p DSR -e 60 -c 2 -a 0 -i 4 -k RTR 
- -t 15.104747738 -s 7 -d 3 -p DSR -e 60 -c 2 -a 0 -i 4 -k RTR
h -t 15.104747738 -s 7 -d 3 -p DSR -e 60 -c 2 -a 0 -i 4 -k RTR
+ -t 15.106765974 -s 3 -d 0 -p DSR -e 60 -c 2 -a 0 -i 4 -k RTR 
- -t 15.106765974 -s 3 -d 0 -p DSR -e 60 -c 2 -a 0 -i 4 -k RTR
h -t 15.106765974 -s 3 -d 0 -p DSR -e 60 -c 2 -a 0 -i 4 -k RTR
+ -t 15.111899519 -s 0 -d 1 -p cbr -e 556 -c 2 -a 0 -i 6 -k RTR 
- -t 15.111899519 -s 0 -d 1 -p cbr -e 556 -c 2 -a 0 -i 6 -k RTR
h -t 15.111899519 -s 0 -d 1 -p cbr -e 556 -c 2 -a 0 -i 6 -k RTR
+ -t 15.112015465 -s 11 -d 5 -p DSR -e 76 -c 2 -a 0 -i 9 -k RTR 
- -t 15.112015465 -s 11 -d 5 -p DSR -e 76 -c 2 -a 0 -i 9 -k RTR
h -t 15.112015465 -s 11 -d 5 -p DSR -e 76 -c 2 -a 0 -i 9 -k RTR
+ -t 15.114158367 -s 8 -d 4 -p DSR -e 68 -c 2 -a 0 -i 10 -k RTR 
- -t 15.114158367 -s 8 -d 4 -p DSR -e 68 -c 2 -a 0 -i 10 -k RTR
h -t 15.114158367 -s 8 -d 4 -p DSR -e 68 -c 2 -a 0 -i 10 -k RTR
+ -t 15.116304701 -s 5 -d 4 -p DSR -e 76 -c 2 -a 0 -i 9 -k RTR 
- -t 15.116304701 -s 5 -d 4 -p DSR -e 76 -c 2 -a 0 -i 9 -k RTR
h -t 15.116304701 -s 5 -d 4 -p DSR -e 76 -c 2 -a 0 -i 9 -k RTR
+ -t 15.118494349 -s 4 -d 1 -p DSR -e 76 -c 2 -a 0 -i 9 -k RTR 
- -t 15.118494349 -s 4 -d 1 -p DSR -e 76 -c 2 -a 0 -i 9 -k RTR
h -t 15.118494349 -s 4 -d 1 -p DSR -e 76 -c 2 -a 0 -i 9 -k RTR
+ -t 15.120560349 -s 1 -d 0 -p DSR -e 76 -c 2 -a 0 -i 9 -k RTR 
- -t 15.120560349 -s 1 -d 0 -p DSR -e 76 -c 2 -a 0 -i 9 -k RTR
h -t 15.120560349 -s 1 -d 0 -p DSR -e 76 -c 2 -a 0 -i 9 -k RTR
+ -t 15.129212349 -s 1 -d 4 -p cbr -e 556 -c 2 -a 0 -i 6 -k RTR 
- -t 15.129212349 -s 1 -d 4 -p cbr -e 556 -c 2 -a 0 -i 6 -k RTR
h -t 15.129212349 -s 1 -d 4 -p cbr -e 556 -c 2 -a 0 -i 6 -k RTR
+ -t 15.130749044 -s 0 -d -1 -p cbr -e 512 -c 2 -a 0 -i 11 -k AGT 
- -t 15.130749044 -s 0 -d -1 -p cbr -e 512 -c 2 -a 0 -i 11 -k AGT
h -t 15.130749044 -s 0 -d -1 -p cbr -e 512 -c 2 -a 0 -i 11 -k AGT
+ -t 15.130749044 -s 0 -d 1 -p cbr -e 556 -c 2 -a 0 -i 11 -k RTR 
- -t 15.130749044 -s 0 -d 1 -p cbr -e 556 -c 2 -a 0 -i 11 -k RTR
h -t 15.130749044 -s 0 -d 1 -p cbr -e 556 -c 2 -a 0 -i 11 -k RTR
+ -t 15.135118349 -s 4 -d 10 -p cbr -e 556 -c 2 -a 0 -i 6 -k RTR 
- -t 15.135118349 -s 4 -d 10 -p cbr -e 556 -c 2 -a 0 -i 6 -k RTR
h -t 15.135118349 -s 4 -d 10 -p cbr -e 556 -c 2 -a 0 -i 6 -k RTR
r -t 15.141224349 -s 10 -d 10 -p cbr -e 512 -c 2 -a 0 -i 6 -k AGT
+ -t 15.143387330 -s 4 -d 1 -p DSR -e 68 -c 2 -a 0 -i 10 -k RTR 
- -t 15.143387330 -s 4 -d 1 -p DSR -e 68 -c 2 -a 0 -i 10 -k RTR
h -t 15.143387330 -s 4 -d 1 -p DSR -e 68 -c 2 -a 0 -i 10 -k RTR
+ -t 15.145485997 -s 9 -d 3 -p DSR -e 60 -c 2 -a 0 -i 8 -k RTR 
- -t 15.145485997 -s 9 -d 3 -p DSR -e 60 -c 2 -a 0 -i 8 -k RTR
h -t 15.145485997 -s 9 -d 3 -p DSR -e 60 -c 2 -a 0 -i 8 -k RTR
+ -t 15.147583997 -s 3 -d 0 -p DSR -e 60 -c 2 -a 0 -i 8 -k RTR 
- -t 15.147583997 -s 3 -d 0 -p DSR -e 60 -c 2 -a 0 -i 8 -k RTR
h -t 15.147583997 -s 3 -d 0 -p DSR -e 60 -c 2 -a 0 -i 8 -k RTR
+ -t 15.149776273 -s 1 -d 0 -p DSR -e 68 -c 2 -a 0 -i 10 -k RTR 
- -t 15.149776273 -s 1 -d 0 -p DSR -e 68 -c 2 -a 0 -i 10 -k RTR
h -t 15.149776273 -s 1 -d 0 -p DSR -e 68 -c 2 -a 0 -i 10 -k RTR
+ -t 15.155772549 -s 1 -d 4 -p cbr -e 556 -c 2 -a 0 -i 11 -k RTR 
- -t 15.155772549 -s 1 -d 4 -p cbr -e 556 -c 2 -a 0 -i 11 -k RTR
h -t 15.155772549 -s 1 -d 4 -p cbr -e 556 -c 2 -a 0 -i 11 -k RTR
+ -t 15.166499101 -s 4 -d 10 -p cbr -e 556 -c 2 -a 0 -i 11 -k RTR 
- -t 15.166499101 -s 4 -d 10 -p cbr -e 556 -c 2 -a 0 -i 11 -k RTR
h -t 15.166499101 -s 4 -d 10 -p cbr -e 556 -c 2 -a 0 -i 11 -k RTR
r -t 15.172705101 -s 10 -d 10 -p cbr -e 512 -c 2 -a 0 -i 11 -k AGT
+ -t 15.183757767 -s 0 -d -1 -p cbr -e 512 -c 2 -a 0 -i 12 -k AGT 
- -t 15.183757767 -s 0 -d -1 -p cbr -e 512 -c 2 -a 0 -i 12 -k AGT
h -t 15.183757767 -s 0 -d -1 -p cbr -e 512 -c 2 -a 0 -i 12 -k AGT
+ -t 15.183757767 -s 0 -d 1 -p cbr -e 532 -c 2 -a 0 -i 12 -k RTR 
- -t 15.183757767 -s 0 -d 1 -p cbr -e 532 -c 2 -a 0 -i 12 -k RTR
h -t 15.183757767 -s 0 -d 1 -p cbr -e 532 -c 2 -a 0 -i 12 -k RTR
+ -t 15.189607767 -s 1 -d 4 -p cbr -e 532 -c 2 -a 0 -i 12 -k RTR 
- -t 15.189607767 -s 1 -d 4 -p cbr -e 532 -c 2 -a 0 -i 12 -k RTR
h -t 15.189607767 -s 1 -d 4 -p cbr -e 532 -c 2 -a 0 -i 12 -k RTR
+ -t 15.195361767 -s 4 -d 10 -p cbr -e 532 -c 2 -a 0 -i 12 -k RTR 
- -t 15.195361767 -s 4 -d 10 -p cbr -e 532 -c 2 -a 0 -i 12 -k RTR
h -t 15.195361767 -s 4 -d 10 -p cbr -e 532 -c 2 -a 0 -i 12 -k RTR
r -t 15.201235767 -s 10 -d 10 -p cbr -e 512 -c 2 -a 0 -i 12 -k AGT
+ -t 15.214899685 -s 0 -d -1 -p cbr -e 512 -c 2 -a 0 -i 13 -k AGT 
- -t 15.214899685 -s 0 -d -1 -p cbr -e 512 -c 2 -a 0 -i 13 -k AGT
h -t 15.214899685 -s 0 -d -1 -p cbr -e 512 -c 2 -a 0 -i 13 -k AGT
+ -t 15.214899685 -s 0 -d 1 -p cbr -e 532 -c 2 -a 0 -i 13 -k RTR 
- -t 15.214899685 -s 0 -d 1 -p cbr -e 532 -c 2 -a 0 -i 13 -k RTR
h -t 15.214899685 -s 0 -d 1 -p cbr -e 532 -c 2 -a 0 -i 13 -k RTR
+ -t 15.220949685 -s 1 -d 4 -p cbr -e 532 -c 2 -a 0 -i 13 -k RTR 
- -t 15.220949685 -s 1 -d 4 -p cbr -e 532 -c 2 -a 0 -i 13 -k RTR
h -t 15.220949685 -s 1 -d 4 -p cbr -e 532 -c 2 -a 0 -i 13 -k RTR
+ -t 15.227163685 -s 4 -d 10 -p cbr -e 532 -c 2 -a 0 -i 13 -k RTR 
- -t 15.227163685 -s 4 -d 10 -p cbr -e 532 -c 2 -a 0 -i 13 -k RTR
h -t 15.227163685 -s 4 -d 10 -p cbr -e 532 -c 2 -a 0 -i 13 -k RTR
r -t 15.233097685 -s 10 -d 10 -p cbr -e 512 -c 2 -a 0 -i 13 -k AGT
+ -t 15.246152620 -s 0 -d -1 -p cbr -e 512 -c 2 -a 0 -i 14 -k AGT 
- -t 15.246152620 -s 0 -d -1 -p cbr -e 512 -c 2 -a 0 -i 14 -k AGT
h -t 15.246152620 -s 0 -d -1 -p cbr -e 512 -c 2 -a 0 -i 14 -k AGT
+ -t 15.246152620 -s 0 -d 1 -p cbr -e 532 -c 2 -a 0 -i 14 -k RTR 
- -t 15.246152620 -s 0 -d 1 -p cbr -e 532 -c 2 -a 0 -i 14 -k RTR
h -t 15.246152620 -s 0 -d 1 -p cbr -e 532 -c 2 -a 0 -i 14 -k RTR
+ -t 15.251622620 -s 1 -d 4 -p cbr -e 532 -c 2 -a 0 -i 14 -k RTR 
- -t 15.251622620 -s 1 -d 4 -p cbr -e 532 -c 2 -a 0 -i 14 -k RTR
h -t 15.251622620 -s 1 -d 4 -p cbr -e 532 -c 2 -a 0 -i 14 -k RTR
+ -t 15.257336620 -s 4 -d 10 -p cbr -e 532 -c 2 -a 0 -i 14 -k RTR 
- -t 15.257336620 -s 4 -d 10 -p cbr -e 532 -c 2 -a 0 -i 14 -k RTR
h -t 15.257336620 -s 4 -d 10 -p cbr -e 532 -c 2 -a 0 -i 14 -k RTR
r -t 15.263230620 -s 10 -d 10 -p cbr -e 512 -c 2 -a 0 -i 14 -k AGT
+ -t 15.319008707 -s 0 -d -1 -p cbr -e 512 -c 2 -a 0 -i 15 -k AGT 
- -t 15.319008707 -s 0 -d -1 -p cbr -e 512 -c 2 -a 0 -i 15 -k AGT
h -t 15.319008707 -s 0 -d -1 -p cbr -e 512 -c 2 -a 0 -i 15 -k AGT
+ -t 15.319008707 -s 0 -d 1 -p cbr -e 532 -c 2 -a 0 -i 15 -k RTR 
- -t 15.319008707 -s 0 -d 1 -p cbr -e 532 -c 2 -a 0 -i 15 -k RTR
h -t 15.319008707 -s 0 -d 1 -p cbr -e 532 -c 2 -a 0 -i 15 -k RTR
+ -t 15.324938707 -s 1 -d 4 -p cbr -e 532 -c 2 -a 0 -i 15 -k RTR 
- -t 15.324938707 -s 1 -d 4 -p cbr -e 532 -c 2 -a 0 -i 15 -k RTR
h -t 15.324938707 -s 1 -d 4 -p cbr -e 532 -c 2 -a 0 -i 15 -k RTR
+ -t 15.331092707 -s 4 -d 10 -p cbr -e 532 -c 2 -a 0 -i 15 -k RTR 
- -t 15.331092707 -s 4 -d 10 -p cbr -e 532 -c 2 -a 0 -i 15 -k RTR
h -t 15.331092707 -s 4 -d 10 -p cbr -e 532 -c 2 -a 0 -i 15 -k RTR
r -t 15.337226707 -s 10 -d 10 -p cbr -e 512 -c 2 -a 0 -i 15 -k AGT
+ -t 15.389370102 -s 0 -d -1 -p cbr -e 512 -c 2 -a 0 -i 16 -k AGT 
- -t 15.389370102 -s 0 -d -1 -p cbr -e 512 -c 2 -a 0 -i 16 -k AGT
h -t 15.389370102 -s 0 -d -1 -p cbr -e 512 -c 2 -a 0 -i 16 -k AGT
+ -t 15.389370102 -s 0 -d 1 -p cbr -e 532 -c 2 -a 0 -i 16 -k RTR 
- -t 15.389370102 -s 0 -d 1 -p cbr -e 532 -c 2 -a 0 -i 16 -k RTR
h -t 15.389370102 -s 0 -d 1 -p cbr -e 532 -c 2 -a 0 -i 16 -k RTR
+ -t 15.395380102 -s 1 -d 4 -p cbr -e 532 -c 2 -a 0 -i 16 -k RTR 
- -t 15.395380102 -s 1 -d 4 -p cbr -e 532 -c 2 -a 0 -i 16 -k RTR
h -t 15.395380102 -s 1 -d 4 -p cbr -e 532 -c 2 -a 0 -i 16 -k RTR
+ -t 15.401114102 -s 4 -d 10 -p cbr -e 532 -c 2 -a 0 -i 16 -k RTR 
- -t 15.401114102 -s 4 -d 10 -p cbr -e 532 -c 2 -a 0 -i 16 -k RTR
h -t 15.401114102 -s 4 -d 10 -p cbr -e 532 -c 2 -a 0 -i 16 -k RTR
r -t 15.407208102 -s 10 -d 10 -p cbr -e 512 -c 2 -a 0 -i 16 -k AGT
+ -t 15.425771406 -s 0 -d -1 -p cbr -e 512 -c 2 -a 0 -i 17 -k AGT 
- -t 15.425771406 -s 0 -d -1 -p cbr -e 512 -c 2 -a 0 -i 17 -k AGT
h -t 15.425771406 -s 0 -d -1 -p cbr -e 512 -c 2 -a 0 -i 17 -k AGT
+ -t 15.425771406 -s 0 -d 1 -p cbr -e 532 -c 2 -a 0 -i 17 -k RTR 
- -t 15.425771406 -s 0 -d 1 -p cbr -e 532 -c 2 -a 0 -i 17 -k RTR
h -t 15.425771406 -s 0 -d 1 -p cbr -e 532 -c 2 -a 0 -i 17 -k RTR
+ -t 15.431701406 -s 1 -d 4 -p cbr -e 532 -c 2 -a 0 -i 17 -k RTR 
- -t 15.431701406 -s 1 -d 4 -p cbr -e 532 -c 2 -a 0 -i 17 -k RTR
h -t 15.431701406 -s 1 -d 4 -p cbr -e 532 -c 2 -a 0 -i 17 -k RTR
+ -t 15.437875406 -s 4 -d 10 -p cbr -e 532 -c 2 -a 0 -i 17 -k RTR 
- -t 15.437875406 -s 4 -d 10 -p cbr -e 532 -c 2 -a 0 -i 17 -k RTR
h -t 15.437875406 -s 4 -d 10 -p cbr -e 532 -c 2 -a 0 -i 17 -k RTR
r -t 15.444089406 -s 10 -d 10 -p cbr -e 512 -c 2 -a 0 -i 17 -k AGT
+ -t 15.460156470 -s 0 -d -1 -p cbr -e 512 -c 2 -a 0 -i 18 -k AGT 
- -t 15.460156470 -s 0 -d -1 -p cbr -e 512 -c 2 -a 0 -i 18 -k AGT
h -t 15.460156470 -s 0 -d -1 -p cbr -e 512 -c 2 -a 0 -i 18 -k AGT
+ -t 15.460156470 -s 0 -d 1 -p cbr -e 532 -c 2 -a 0 -i 18 -k RTR 
- -t 15.460156470 -s 0 -d 1 -p cbr -e 532 -c 2 -a 0 -i 18 -k RTR
h -t 15.460156470 -s 0 -d 1 -p cbr -e 532 -c 2 -a 0 -i 18 -k RTR
+ -t 15.465926470 -s 1 -d 4 -p cbr -e 532 -c 2 -a 0 -i 18 -k RTR 
- -t 15.465926470 -s 1 -d 4 -p cbr -e 532 -c 2 -a 0 -i 18 -k RTR
h -t 15.465926470 -s 1 -d 4 -p cbr -e 532 -c 2 -a 0 -i 18 -k RTR
+ -t 15.472120470 -s 4 -d 10 -p cbr -e 532 -c 2 -a 0 -i 18 -k RTR 
- -t 15.472120470 -s 4 -d 10 -p cbr -e 532 -c 2 -a 0 -i 18 -k RTR
h -t 15.472120470 -s 4 -d 10 -p cbr -e 532 -c 2 -a 0 -i 18 -k RTR
r -t 15.478334470 -s 10 -d 10 -p cbr -e 512 -c 2 -a 0 -i 18 -k AGT
+ -t 15.529599720 -s 0 -d -1 -p cbr -e 512 -c 2 -a 0 -i 19 -k AGT 
- -t 15.529599720 -s 0 -d -1 -p cbr -e 512 -c 2 -a 0 -i 19 -k AGT
h -t 15.529599720 -s 0 -d -1 -p cbr -e 512 -c 2 -a 0 -i 19 -k AGT
+ -t 15.529599720 -s 0 -d 1 -p cbr -e 532 -c 2 -a 0 -i 19 -k RTR 
- -t 15.529599720 -s 0 -d 1 -p cbr -e 532 -c 2 -a 0 -i 19 -k RTR
h -t 15.529599720 -s 0 -d 1 -p cbr -e 532 -c 2 -a 0 -i 19 -k RTR
+ -t 15.535409720 -s 1 -d 4 -p cbr -e 532 -c 2 -a 0 -i 19 -k RTR 
- -t 15.535409720 -s 1 -d 4 -p cbr -e 532 -c 2 -a 0 -i 19 -k RTR
h -t 15.535409720 -s 1 -d 4 -p cbr -e 532 -c 2 -a 0 -i 19 -k RTR
+ -t 15.541583720 -s 4 -d 10 -p cbr -e 532 -c 2 -a 0 -i 19 -k RTR 
- -t 15.541583720 -s 4 -d 10 -p cbr -e 532 -c 2 -a 0 -i 19 -k RTR
h -t 15.541583720 -s 4 -d 10 -p cbr -e 532 -c 2 -a 0 -i 19 -k RTR
r -t 15.547777720 -s 10 -d 10 -p cbr -e 512 -c 2 -a 0 -i 19 -k AGT
+ -t 15.583208147 -s 0 -d -1 -p cbr -e 512 -c 2 -a 0 -i 20 -k AGT 
- -t 15.583208147 -s 0 -d -1 -p cbr -e 512 -c 2 -a 0 -i 20 -k AGT
h -t 15.583208147 -s 0 -d -1 -p cbr -e 512 -c 2 -a 0 -i 20 -k AGT
+ -t 15.583208147 -s 0 -d 1 -p cbr -e 532 -c 2 -a 0 -i 20 -k RTR 
- -t 15.583208147 -s 0 -d 1 -p cbr -e 532 -c 2 -a 0 -i 20 -k RTR
h -t 15.583208147 -s 0 -d 1 -p cbr -e 532 -c 2 -a 0 -i 20 -k RTR
+ -t 15.588878147 -s 1 -d 4 -p cbr -e 532 -c 2 -a 0 -i 20 -k RTR 
- -t 15.588878147 -s 1 -d 4 -p cbr -e 532 -c 2 -a 0 -i 20 -k RTR
h -t 15.588878147 -s 1 -d 4 -p cbr -e 532 -c 2 -a 0 -i 20 -k RTR
+ -t 15.594692147 -s 4 -d 10 -p cbr -e 532 -c 2 -a 0 -i 20 -k RTR 
- -t 15.594692147 -s 4 -d 10 -p cbr -e 532 -c 2 -a 0 -i 20 -k RTR
h -t 15.594692147 -s 4 -d 10 -p cbr -e 532 -c 2 -a 0 -i 20 -k RTR
r -t 15.600706147 -s 10 -d 10 -p cbr -e 512 -c 2 -a 0 -i 20 -k AGT
+ -t 15.627036508 -s 0 -d -1 -p cbr -e 512 -c 2 -a 0 -i 21 -k AGT 
- -t 15.627036508 -s 0 -d -1 -p cbr -e 512 -c 2 -a 0 -i 21 -k AGT
h -t 15.627036508 -s 0 -d -1 -p cbr -e 512 -c 2 -a 0 -i 21 -k AGT
+ -t 15.627036508 -s 0 -d 1 -p cbr -e 532 -c 2 -a 0 -i 21 -k RTR 
- -t 15.627036508 -s 0 -d 1 -p cbr -e 532 -c 2 -a 0 -i 21 -k RTR
h -t 15.627036508 -s 0 -d 1 -p cbr -e 532 -c 2 -a 0 -i 21 -k RTR
+ -t 15.632826508 -s 1 -d 4 -p cbr -e 532 -c 2 -a 0 -i 21 -k RTR 
- -t 15.632826508 -s 1 -d 4 -p cbr -e 532 -c 2 -a 0 -i 21 -k RTR
h -t 15.632826508 -s 1 -d 4 -p cbr -e 532 -c 2 -a 0 -i 21 -k RTR
+ -t 15.638940508 -s 4 -d 10 -p cbr -e 532 -c 2 -a 0 -i 21 -k RTR 
- -t 15.638940508 -s 4 -d 10 -p cbr -e 532 -c 2 -a 0 -i 21 -k RTR
h -t 15.638940508 -s 4 -d 10 -p cbr -e 532 -c 2 -a 0 -i 21 -k RTR
r -t 15.644734508 -s 10 -d 10 -p cbr -e 512 -c 2 -a 0 -i 21 -k AGT
+ -t 15.660067203 -s 0 -d -1 -p cbr -e 512 -c 2 -a 0 -i 22 -k AGT 
- -t 15.660067203 -s 0 -d -1 -p cbr -e 512 -c 2 -a 0 -i 22 -k AGT
h -t 15.660067203 -s 0 -d -1 -p cbr -e 512 -c 2 -a 0 -i 22 -k AGT
+ -t 15.660067203 -s 0 -d 1 -p cbr -e 532 -c 2 -a 0 -i 22 -k RTR 
- -t 15.660067203 -s 0 -d 1 -p cbr -e 532 -c 2 -a 0 -i 22 -k RTR
h -t 15.660067203 -s 0 -d 1 -p cbr -e 532 -c 2 -a 0 -i 22 -k RTR
+ -t 15.665637203 -s 1 -d 4 -p cbr -e 532 -c 2 -a 0 -i 22 -k RTR 
- -t 15.665637203 -s 1 -d 4 -p cbr -e 532 -c 2 -a 0 -i 22 -k RTR
h -t 15.665637203 -s 1 -d 4 -p cbr -e 532 -c 2 -a 0 -i 22 -k RTR
+ -t 15.671691203 -s 4 -d 10 -p cbr -e 532 -c 2 -a 0 -i 22 -k RTR 
- -t 15.671691203 -s 4 -d 10 -p cbr -e 532 -c 2 -a 0 -i 22 -k RTR
h -t 15.671691203 -s 4 -d 10 -p cbr -e 532 -c 2 -a 0 -i 22 -k RTR
r -t 15.677825203 -s 10 -d 10 -p cbr -e 512 -c 2 -a 0 -i 22 -k AGT
+ -t 15.714386571 -s 0 -d -1 -p cbr -e 512 -c 2 -a 0 -i 23 -k AGT 
- -t 15.714386571 -s 0 -d -1 -p cbr -e 512 -c 2 -a 0 -i 23 -k AGT
h -t 15.714386571 -s 0 -d -1 -p cbr -e 512 -c 2 -a 0 -i 23 -k AGT
+ -t 15.714386571 -s 0 -d 1 -p cbr -e 532 -c 2 -a 0 -i 23 -k RTR 
- -t 15.714386571 -s 0 -d 1 -p cbr -e 532 -c 2 -a 0 -i 23 -k RTR
h -t 15.714386571 -s 0 -d 1 -p cbr -e 532 -c 2 -a 0 -i 23 -k RTR
+ -t 15.719916571 -s 1 -d 4 -p cbr -e 532 -c 2 -a 0 -i 23 -k RTR 
- -t 15.719916571 -s 1 -d 4 -p cbr -e 532 -c 2 -a 0 -i 23 -k RTR
h -t 15.719916571 -s 1 -d 4 -p cbr -e 532 -c 2 -a 0 -i 23 -k RTR
+ -t 15.725970571 -s 4 -d 10 -p cbr -e 532 -c 2 -a 0 -i 23 -k RTR 
- -t 15.725970571 -s 4 -d 10 -p cbr -e 532 -c 2 -a 0 -i 23 -k RTR
h -t 15.725970571 -s 4 -d 10 -p cbr -e 532 -c 2 -a 0 -i 23 -k RTR
r -t 15.732224571 -s 10 -d 10 -p cbr -e 512 -c 2 -a 0 -i 23 -k AGT
+ -t 15.765807346 -s 0 -d -1 -p cbr -e 512 -c 2 -a 0 -i 24 -k AGT 
- -t 15.765807346 -s 0 -d -1 -p cbr -e 512 -c 2 -a 0 -i 24 -k AGT
h -t 15.765807346 -s 0 -d -1 -p cbr -e 512 -c 2 -a 0 -i 24 -k AGT
+ -t 15.765807346 -s 0 -d 1 -p cbr -e 532 -c 2 -a 0 -i 24 -k RTR 
- -t 15.765807346 -s 0 -d 1 -p cbr -e 532 -c 2 -a 0 -i 24 -k RTR
h -t 15.765807346 -s 0 -d 1 -p cbr -e 532 -c 2 -a 0 -i 24 -k RTR
+ -t 15.771517346 -s 1 -d 4 -p cbr -e 532 -c 2 -a 0 -i 24 -k RTR 
- -t 15.771517346 -s 1 -d 4 -p cbr -e 532 -c 2 -a 0 -i 24 -k RTR
h -t 15.771517346 -s 1 -d 4 -p cbr -e 532 -c 2 -a 0 -i 24 -k RTR
+ -t 15.777671346 -s 4 -d 10 -p cbr -e 532 -c 2 -a 0 -i 24 -k RTR 
- -t 15.777671346 -s 4 -d 10 -p cbr -e 532 -c 2 -a 0 -i 24 -k RTR
h -t 15.777671346 -s 4 -d 10 -p cbr -e 532 -c 2 -a 0 -i 24 -k RTR
r -t 15.783725346 -s 10 -d 10 -p cbr -e 512 -c 2 -a 0 -i 24 -k AGT
+ -t 15.835826381 -s 0 -d -1 -p cbr -e 512 -c 2 -a 0 -i 25 -k AGT 
- -t 15.835826381 -s 0 -d -1 -p cbr -e 512 -c 2 -a 0 -i 25 -k AGT
h -t 15.835826381 -s 0 -d -1 -p cbr -e 512 -c 2 -a 0 -i 25 -k AGT
+ -t 15.835826381 -s 0 -d 1 -p cbr -e 532 -c 2 -a 0 -i 25 -k RTR 
- -t 15.835826381 -s 0 -d 1 -p cbr -e 532 -c 2 -a 0 -i 25 -k RTR
h -t 15.835826381 -s 0 -d 1 -p cbr -e 532 -c 2 -a 0 -i 25 -k RTR
+ -t 15.841676381 -s 1 -d 4 -p cbr -e 532 -c 2 -a 0 -i 25 -k RTR 
- -t 15.841676381 -s 1 -d 4 -p cbr -e 532 -c 2 -a 0 -i 25 -k RTR
h -t 15.841676381 -s 1 -d 4 -p cbr -e 532 -c 2 -a 0 -i 25 -k RTR
+ -t 15.847630381 -s 4 -d 10 -p cbr -e 532 -c 2 -a 0 -i 25 -k RTR 
- -t 15.847630381 -s 4 -d 10 -p cbr -e 532 -c 2 -a 0 -i 25 -k RTR
h -t 15.847630381 -s 4 -d 10 -p cbr -e 532 -c 2 -a 0 -i 25 -k RTR
r -t 15.853584381 -s 10 -d 10 -p cbr -e 512 -c 2 -a 0 -i 25 -k AGT
+ -t 15.897597059 -s 0 -d -1 -p cbr -e 512 -c 2 -a 0 -i 26 -k AGT 
- -t 15.897597059 -s 0 -d -1 -p cbr -e 512 -c 2 -a 0 -i 26 -k AGT
h -t 15.897597059 -s 0 -d -1 -p cbr -e 512 -c 2 -a 0 -i 26 -k AGT
+ -t 15.897597059 -s 0 -d 1 -p cbr -e 532 -c 2 -a 0 -i 26 -k RTR 
- -t 15.897597059 -s 0 -d 1 -p cbr -e 532 -c 2 -a 0 -i 26 -k RTR
h -t 15.897597059 -s 0 -d 1 -p cbr -e 532 -c 2 -a 0 -i 26 -k RTR
+ -t 15.903287059 -s 1 -d 4 -p cbr -e 532 -c 2 -a 0 -i 26 -k RTR 
- -t 15.903287059 -s 1 -d 4 -p cbr -e 532 -c 2 -a 0 -i 26 -k RTR
h -t 15.903287059 -s 1 -d 4 -p cbr -e 532 -c 2 -a 0 -i 26 -k RTR
+ -t 15.909261059 -s 4 -d 10 -p cbr -e 532 -c 2 -a 0 -i 26 -k RTR 
- -t 15.909261059 -s 4 -d 10 -p cbr -e 532 -c 2 -a 0 -i 26 -k RTR
h -t 15.909261059 -s 4 -d 10 -p cbr -e 532 -c 2 -a 0 -i 26 -k RTR
r -t 15.915115059 -s 10 -d 10 -p cbr -e 512 -c 2 -a 0 -i 26 -k AGT
+ -t 15.949789054 -s 0 -d -1 -p cbr -e 512 -c 2 -a 0 -i 27 -k AGT 
- -t 15.949789054 -s 0 -d -1 -p cbr -e 512 -c 2 -a 0 -i 27 -k AGT
h -t 15.949789054 -s 0 -d -1 -p cbr -e 512 -c 2 -a 0 -i 27 -k AGT
+ -t 15.949789054 -s 0 -d 1 -p cbr -e 532 -c 2 -a 0 -i 27 -k RTR 
- -t 15.949789054 -s 0 -d 1 -p cbr -e 532 -c 2 -a 0 -i 27 -k RTR
h -t 15.949789054 -s 0 -d 1 -p cbr -e 532 -c 2 -a 0 -i 27 -k RTR
+ -t 15.955399054 -s 1 -d 4 -p cbr -e 532 -c 2 -a 0 -i 27 -k RTR 
- -t 15.955399054 -s 1 -d 4 -p cbr -e 532 -c 2 -a 0 -i 27 -k RTR
h -t 15.955399054 -s 1 -d 4 -p cbr -e 532 -c 2 -a 0 -i 27 -k RTR
+ -t 15.961213054 -s 4 -d 10 -p cbr -e 532 -c 2 -a 0 -i 27 -k RTR 
- -t 15.961213054 -s 4 -d 10 -p cbr -e 532 -c 2 -a 0 -i 27 -k RTR
h -t 15.961213054 -s 4 -d 10 -p cbr -e 532 -c 2 -a 0 -i 27 -k RTR
r -t 15.967487054 -s 10 -d 10 -p cbr -e 512 -c 2 -a 0 -i 27 -k AGT
+ -t 16.022788735 -s 0 -d -1 -p cbr -e 512 -c 2 -a 0 -i 28 -k AGT 
- -t 16.022788735 -s 0 -d -1 -p cbr -e 512 -c 2 -a 0 -i 28 -k AGT
h -t 16.022788735 -s 0 -d -1 -p cbr -e 512 -c 2 -a 0 -i 28 -k AGT
+ -t 16.022788735 -s 0 -d 1 -p cbr -e 532 -c 2 -a 0 -i 28 -k RTR 
- -t 16.022788735 -s 0 -d 1 -p cbr -e 532 -c 2 -a 0 -i 28 -k RTR
h -t 16.022788735 -s 0 -d 1 -p cbr -e 532 -c 2 -a 0 -i 28 -k RTR
+ -t 16.028418735 -s 1 -d 4 -p cbr -e 532 -c 2 -a 0 -i 28 -k RTR 
- -t 16.028418735 -s 1 -d 4 -p cbr -e 532 -c 2 -a 0 -i 28 -k RTR
h -t 16.028418735 -s 1 -d 4 -p cbr -e 532 -c 2 -a 0 -i 28 -k RTR
+ -t 16.034452735 -s 4 -d 10 -p cbr -e 532 -c 2 -a 0 -i 28 -k RTR 
- -t 16.034452735 -s 4 -d 10 -p cbr -e 532 -c 2 -a 0 -i 28 -k RTR
h -t 16.034452735 -s 4 -d 10 -p cbr -e 532 -c 2 -a 0 -i 28 -k RTR
r -t 16.040446735 -s 10 -d 10 -p cbr -e 512 -c 2 -a 0 -i 28 -k AGT
+ -t 16.085424650 -s 0 -d -1 -p cbr -e 512 -c 2 -a 0 -i 29 -k AGT 
- -t 16.085424650 -s 0 -d -1 -p cbr -e 512 -c 2 -a 0 -i 29 -k AGT
h -t 16.085424650 -s 0 -d -1 -p cbr -e 512 -c 2 -a 0 -i 29 -k AGT
+ -t 16.085424650 -s 0 -d 1 -p cbr -e 532 -c 2 -a 0 -i 29 -k RTR 
- -t 16.085424650 -s 0 -d 1 -p cbr -e 532 -c 2 -a 0 -i 29 -k RTR
h -t 16.085424650 -s 0 -d 1 -p cbr -e 532 -c 2 -a 0 -i 29 -k RTR
+ -t 16.091014650 -s 1 -d 4 -p cbr -e 532 -c 2 -a 0 -i 29 -k RTR 
- -t 16.091014650 -s 1 -d 4 -p cbr -e 532 -c 2 -a 0 -i 29 -k RTR
h -t 16.091014650 -s 1 -d 4 -p cbr -e 532 -c 2 -a 0 -i 29 -k RTR
+ -t 16.097088650 -s 4 -d 10 -p cbr -e 532 -c 2 -a 0 -i 29 -k RTR 
- -t 16.097088650 -s 4 -d 10 -p cbr -e 532 -c 2 -a 0 -i 29 -k RTR
h -t 16.097088650 -s 4 -d 10 -p cbr -e 532 -c 2 -a 0 -i 29 -k RTR
r -t 16.102942650 -s 10 -d 10 -p cbr -e 512 -c 2 -a 0 -i 29 -k AGT
+ -t 16.155247867 -s 0 -d -1 -p cbr -e 512 -c 2 -a 0 -i 30 -k AGT 
- -t 16.155247867 -s 0 -d -1 -p cbr -e 512 -c 2 -a 0 -i 30 -k AGT
h -t 16.155247867 -s 0 -d -1 -p cbr -e 512 -c 2 -a 0 -i 30 -k AGT
+ -t 16.155247867 -s 0 -d 1 -p cbr -e 532 -c 2 -a 0 -i 30 -k RTR 
- -t 16.155247867 -s 0 -d 1 -p cbr -e 532 -c 2 -a 0 -i 30 -k RTR
h -t 16.155247867 -s 0 -d 1 -p cbr -e 532 -c 2 -a 0 -i 30 -k RTR
+ -t 16.160937867 -s 1 -d 4 -p cbr -e 532 -c 2 -a 0 -i 30 -k RTR 
- -t 16.160937867 -s 1 -d 4 -p cbr -e 532 -c 2 -a 0 -i 30 -k RTR
h -t 16.160937867 -s 1 -d 4 -p cbr -e 532 -c 2 -a 0 -i 30 -k RTR
+ -t 16.166891867 -s 4 -d 10 -p cbr -e 532 -c 2 -a 0 -i 30 -k RTR 
- -t 16.166891867 -s 4 -d 10 -p cbr -e 532 -c 2 -a 0 -i 30 -k RTR
h -t 16.166891867 -s 4 -d 10 -p cbr -e 532 -c 2 -a 0 -i 30 -k RTR
r -t 16.173045867 -s 10 -d 10 -p cbr -e 512 -c 2 -a 0 -i 30 -k AGT
+ -t 16.202016653 -s 0 -d -1 -p cbr -e 512 -c 2 -a 0 -i 31 -k AGT 
- -t 16.202016653 -s 0 -d -1 -p cbr -e 512 -c 2 -a 0 -i 31 -k AGT
h -t 16.202016653 -s 0 -d -1 -p cbr -e 512 -c 2 -a 0 -i 31 -k AGT
+ -t 16.202016653 -s 0 -d 1 -p cbr -e 532 -c 2 -a 0 -i 31 -k RTR 
- -t 16.202016653 -s 0 -d 1 -p cbr -e 532 -c 2 -a 0 -i 31 -k RTR
h -t 16.202016653 -s 0 -d 1 -p cbr -e 532 -c 2 -a 0 -i 31 -k RTR
+ -t 16.208046653 -s 1 -d 4 -p cbr -e 532 -c 2 -a 0 -i 31 -k RTR 
- -t 16.208046653 -s 1 -d 4 -p cbr -e 532 -c 2 -a 0 -i 31 -k RTR
h -t 16.208046653 -s 1 -d 4 -p cbr -e 532 -c 2 -a 0 -i 31 -k RTR
+ -t 16.214340653 -s 4 -d 10 -p cbr -e 532 -c 2 -a 0 -i 31 -k RTR 
- -t 16.214340653 -s 4 -d 10 -p cbr -e 532 -c 2 -a 0 -i 31 -k RTR
h -t 16.214340653 -s 4 -d 10 -p cbr -e 532 -c 2 -a 0 -i 31 -k RTR
r -t 16.220394653 -s 10 -d 10 -p cbr -e 512 -c 2 -a 0 -i 31 -k AGT
+ -t 16.265927900 -s 0 -d -1 -p cbr -e 512 -c 2 -a 0 -i 32 -k AGT 
- -t 16.265927900 -s 0 -d -1 -p cbr -e 512 -c 2 -a 0 -i 32 -k AGT
h -t 16.265927900 -s 0 -d -1 -p cbr -e 512 -c 2 -a 0 -i 32 -k AGT
+ -t 16.265927900 -s 0 -d 1 -p cbr -e 532 -c 2 -a 0 -i 32 -k RTR 
- -t 16.265927900 -s 0 -d 1 -p cbr -e 532 -c 2 -a 0 -i 32 -k RTR
h -t 16.265927900 -s 0 -d 1 -p cbr -e 532 -c 2 -a 0 -i 32 -k RTR
+ -t 16.271617900 -s 1 -d 4 -p cbr -e 532 -c 2 -a 0 -i 32 -k RTR 
- -t 16.271617900 -s 1 -d 4 -p cbr -e 532 -c 2 -a 0 -i 32 -k RTR
h -t 16.271617900 -s 1 -d 4 -p cbr -e 532 -c 2 -a 0 -i 32 -k RTR
+ -t 16.277491900 -s 4 -d 10 -p cbr -e 532 -c 2 -a 0 -i 32 -k RTR 
- -t 16.277491900 -s 4 -d 10 -p cbr -e 532 -c 2 -a 0 -i 32 -k RTR
h -t 16.277491900 -s 4 -d 10 -p cbr -e 532 -c 2 -a 0 -i 32 -k RTR
r -t 16.283385900 -s 10 -d 10 -p cbr -e 512 -c 2 -a 0 -i 32 -k AGT
+ -t 16.334596607 -s 0 -d -1 -p cbr -e 512 -c 2 -a 0 -i 33 -k AGT 
- -t 16.334596607 -s 0 -d -1 -p cbr -e 512 -c 2 -a 0 -i 33 -k AGT
h -t 16.334596607 -s 0 -d -1 -p cbr -e 512 -c 2 -a 0 -i 33 -k AGT
+ -t 16.334596607 -s 0 -d 1 -p cbr -e 532 -c 2 -a 0 -i 33 -k RTR 
- -t 16.334596607 -s 0 -d 1 -p cbr -e 532 -c 2 -a 0 -i 33 -k RTR
h -t 16.334596607 -s 0 -d 1 -p cbr -e 532 -c 2 -a 0 -i 33 -k RTR
+ -t 16.340506607 -s 1 -d 4 -p cbr -e 532 -c 2 -a 0 -i 33 -k RTR 
- -t 16.340506607 -s 1 -d 4 -p cbr -e 532 -c 2 -a 0 -i 33 -k RTR
h -t 16.340506607 -s 1 -d 4 -p cbr -e 532 -c 2 -a 0 -i 33 -k RTR
+ -t 16.346540607 -s 4 -d 10 -p cbr -e 532 -c 2 -a 0 -i 33 -k RTR 
- -t 16.346540607 -s 4 -d 10 -p cbr -e 532 -c 2 -a 0 -i 33 -k RTR
h -t 16.346540607 -s 4 -d 10 -p cbr -e 532 -c 2 -a 0 -i 33 -k RTR
r -t 16.352294607 -s 10 -d 10 -p cbr -e 512 -c 2 -a 0 -i 33 -k AGT
+ -t 16.403421962 -s 0 -d -1 -p cbr -e 512 -c 2 -a 0 -i 34 -k AGT 
- -t 16.403421962 -s 0 -d -1 -p cbr -e 512 -c 2 -a 0 -i 34 -k AGT
h -t 16.403421962 -s 0 -d -1 -p cbr -e 512 -c 2 -a 0 -i 34 -k AGT
+ -t 16.403421962 -s 0 -d 1 -p cbr -e 532 -c 2 -a 0 -i 34 -k RTR 
- -t 16.403421962 -s 0 -d 1 -p cbr -e 532 -c 2 -a 0 -i 34 -k RTR
h -t 16.403421962 -s 0 -d 1 -p cbr -e 532 -c 2 -a 0 -i 34 -k RTR
+ -t 16.409111962 -s 1 -d 4 -p cbr -e 532 -c 2 -a 0 -i 34 -k RTR 
- -t 16.409111962 -s 1 -d 4 -p cbr -e 532 -c 2 -a 0 -i 34 -k RTR
h -t 16.409111962 -s 1 -d 4 -p cbr -e 532 -c 2 -a 0 -i 34 -k RTR
+ -t 16.414905962 -s 4 -d 10 -p cbr -e 532 -c 2 -a 0 -i 34 -k RTR 
- -t 16.414905962 -s 4 -d 10 -p cbr -e 532 -c 2 -a 0 -i 34 -k RTR
h -t 16.414905962 -s 4 -d 10 -p cbr -e 532 -c 2 -a 0 -i 34 -k RTR
r -t 16.420999962 -s 10 -d 10 -p cbr -e 512 -c 2 -a 0 -i 34 -k AGT
+ -t 16.472659129 -s 0 -d -1 -p cbr -e 512 -c 2 -a 0 -i 35 -k AGT 
- -t 16.472659129 -s 0 -d -1 -p cbr -e 512 -c 2 -a 0 -i 35 -k AGT
h -t 16.472659129 -s 0 -d -1 -p cbr -e 512 -c 2 -a 0 -i 35 -k AGT
+ -t 16.472659129 -s 0 -d 1 -p cbr -e 532 -c 2 -a 0 -i 35 -k RTR 
- -t 16.472659129 -s 0 -d 1 -p cbr -e 532 -c 2 -a 0 -i 35 -k RTR
h -t 16.472659129 -s 0 -d 1 -p cbr -e 532 -c 2 -a 0 -i 35 -k RTR
+ -t 16.478589129 -s 1 -d 4 -p cbr -e 532 -c 2 -a 0 -i 35 -k RTR 
- -t 16.478589129 -s 1 -d 4 -p cbr -e 532 -c 2 -a 0 -i 35 -k RTR