Sconfig 0.00000 tap: on snoop: rts? on errs? on
Sconfig 0.00000 salvage: on !bd replies? on
Sconfig 0.00000 grat error: on grat reply: on
Sconfig 0.00000 $reply for props: on ring 0 search: on
Sconfig 0.00000 using MOBICACHE
s 15.000000000 _0_ AGT  --- 0 cbr 512 [0 0 0 0] ------- [0:0 19:0 32 0] [0] 0 0
r 15.000000000 _0_ RTR  --- 0 cbr 512 [0 0 0 0] ------- [0:0 19:0 32 0] [0] 0 0
s 15.000000000 _1_ AGT  --- 2 cbr 512 [0 0 0 0] ------- [1:0 21:0 32 0] [0] 0 0
r 15.000000000 _1_ RTR  --- 2 cbr 512 [0 0 0 0] ------- [1:0 21:0 32 0] [0] 0 0
s 15.000000000 _24_ AGT  --- 4 cbr 512 [0 0 0 0] ------- [24:0 25:0 32 0] [0] 0 0
r 15.000000000 _24_ RTR  --- 4 cbr 512 [0 0 0 0] ------- [24:0 25:0 32 0] [0] 0 0
s 15.004810499 _24_ RTR  --- 5 DSR 32 [0 0 0 0] ------- [24:255 25:255 32 0] 1 [1 1] [0 1 0 0->0] [0 0 0 0->0]
r 15.006062832 _22_ RTR  --- 5 DSR 32 [0 ffffffff 18 800] ------- [24:255 25:255 32 0] 1 [1 1] [0 1 0 0->0] [0 0 0 0->0]
r 15.006062832 _7_ RTR  --- 5 DSR 32 [0 ffffffff 18 800] ------- [24:255 25:255 32 0] 1 [1 1] [0 1 0 0->0] [0 0 0 0->0]
r 15.006062832 _26_ RTR  --- 5 DSR 32 [0 ffffffff 18 800] ------- [24:255 25:255 32 0] 1 [1 1] [0 1 0 0->0] [0 0 0 0->0]
r 15.006062832 _8_ RTR  --- 5 DSR 32 [0 ffffffff 18 800] ------- [24:255 25:255 32 0] 1 [1 1] [0 1 0 0->0] [0 0 0 0->0]
r 15.006062970 _10_ RTR  --- 5 DSR 32 [0 ffffffff 18 800] ------- [24:255 25:255 32 0] 1 [1 1] [0 1 0 0->0] [0 0 0 0->0]
r 15.006062970 _4_ RTR  --- 5 DSR 32 [0 ffffffff 18 800] ------- [24:255 25:255 32 0] 1 [1 1] [0 1 0 0->0] [0 0 0 0->0]
r 15.006062970 _5_ RTR  --- 5 DSR 32 [0 ffffffff 18 800] ------- [24:255 25:255 32 0] 1 [1 1] [0 1 0 0->0] [0 0 0 0->0]
r 15.006062970 _11_ RTR  --- 5 DSR 32 [0 ffffffff 18 800] ------- [24:255 25:255 32 0] 1 [1 1] [0 1 0 0->0] [0 0 0 0->0]
r 15.006063166 _20_ RTR  --- 5 DSR 32 [0 ffffffff 18 800] ------- [24:255 25:255 32 0] 1 [1 1] [0 1 0 0->0] [0 0 0 0->0]
r 15.006063166 _25_ RTR  --- 5 DSR 32 [0 ffffffff 18 800] ------- [24:255 25:255 32 0] 1 [1 1] [0 1 0 0->0] [0 0 0 0->0]
r 15.006063166 _28_ RTR  --- 5 DSR 32 [0 ffffffff 18 800] ------- [24:255 25:255 32 0] 1 [1 1] [0 1 0 0->0] [0 0 0 0->0]
r 15.006063244 _13_ RTR  --- 5 DSR 32 [0 ffffffff 18 800] ------- [24:255 25:255 32 0] 1 [1 1] [0 1 0 0->0] [0 0 0 0->0]
r 15.006063244 _1_ RTR  --- 5 DSR 32 [0 ffffffff 18 800] ------- [24:255 25:255 32 0] 1 [1 1] [0 1 0 0->0] [0 0 0 0->0]
r 15.006063244 _27_ RTR  --- 5 DSR 32 [0 ffffffff 18 800] ------- [24:255 25:255 32 0] 1 [1 1] [0 1 0 0->0] [0 0 0 0->0]
r 15.006063244 _23_ RTR  --- 5 DSR 32 [0 ffffffff 18 800] ------- [24:255 25:255 32 0] 1 [1 1] [0 1 0 0->0] [0 0 0 0->0]
r 15.006063244 _2_ RTR  --- 5 DSR 32 [0 ffffffff 18 800] ------- [24:255 25:255 32 0] 1 [1 1] [0 1 0 0->0] [0 0 0 0->0]
r 15.006063244 _14_ RTR  --- 5 DSR 32 [0 ffffffff 18 800] ------- [24:255 25:255 32 0] 1 [1 1] [0 1 0 0->0] [0 0 0 0->0]
s 15.006287328 _1_ RTR  --- 3 DSR 32 [0 0 0 0] ------- [1:255 21:255 32 0] 1 [1 1] [0 1 0 0->0] [0 0 0 0->0]
s 15.007402038 _0_ RTR  --- 1 DSR 32 [0 0 0 0] ------- [0:255 19:255 32 0] 1 [1 1] [0 1 0 0->0] [0 0 0 0->0]
s 15.007516652 _25_ RTR  --- 6 DSR 44 [0 0 0 0] ------- [25:255 24:255 254 24] 2 [0 1] [1 1 2 24->25] [0 0 0 0->0]
r 15.007539661 _29_ RTR  --- 3 DSR 32 [0 ffffffff 1 800] ------- [1:255 21:255 32 0] 1 [1 1] [0 1 0 0->0] [0 0 0 0->0]
r 15.007539661 _4_ RTR  --- 3 DSR 32 [0 ffffffff 1 800] ------- [1:255 21:255 32 0] 1 [1 1] [0 1 0 0->0] [0 0 0 0->0]
r 15.007539661 _28_ RTR  --- 3 DSR 32 [0 ffffffff 1 800] ------- [1:255 21:255 32 0] 1 [1 1] [0 1 0 0->0] [0 0 0 0->0]
r 15.007539799 _27_ RTR  --- 3 DSR 32 [0 ffffffff 1 800] ------- [1:255 21:255 32 0] 1 [1 1] [0 1 0 0->0] [0 0 0 0->0]
r 15.007539799 _26_ RTR  --- 3 DSR 32 [0 ffffffff 1 800] ------- [1:255 21:255 32 0] 1 [1 1] [0 1 0 0->0] [0 0 0 0->0]
r 15.007539995 _0_ RTR  --- 3 DSR 32 [0 ffffffff 1 800] ------- [1:255 21:255 32 0] 1 [1 1] [0 1 0 0->0] [0 0 0 0->0]
r 15.007539995 _7_ RTR  --- 3 DSR 32 [0 ffffffff 1 800] ------- [1:255 21:255 32 0] 1 [1 1] [0 1 0 0->0] [0 0 0 0->0]
r 15.007539995 _2_ RTR  --- 3 DSR 32 [0 ffffffff 1 800] ------- [1:255 21:255 32 0] 1 [1 1] [0 1 0 0->0] [0 0 0 0->0]
r 15.007540073 _25_ RTR  --- 3 DSR 32 [0 ffffffff 1 800] ------- [1:255 21:255 32 0] 1 [1 1] [0 1 0 0->0] [0 0 0 0->0]
r 15.007540073 _3_ RTR  --- 3 DSR 32 [0 ffffffff 1 800] ------- [1:255 21:255 32 0] 1 [1 1] [0 1 0 0->0] [0 0 0 0->0]
r 15.007540073 _24_ RTR  --- 3 DSR 32 [0 ffffffff 1 800] ------- [1:255 21:255 32 0] 1 [1 1] [0 1 0 0->0] [0 0 0 0->0]
r 15.007540073 _5_ RTR  --- 3 DSR 32 [0 ffffffff 1 800] ------- [1:255 21:255 32 0] 1 [1 1] [0 1 0 0->0] [0 0 0 0->0]
r 15.008442328 _3_ RTR  --- 1 DSR 32 [0 ffffffff 0 800] ------- [0:255 19:255 32 0] 1 [1 1] [0 1 0 0->0] [0 0 0 0->0]
r 15.008442328 _29_ RTR  --- 1 DSR 32 [0 ffffffff 0 800] ------- [0:255 19:255 32 0] 1 [1 1] [0 1 0 0->0] [0 0 0 0->0]
r 15.008442466 _27_ RTR  --- 1 DSR 32 [0 ffffffff 0 800] ------- [0:255 19:255 32 0] 1 [1 1] [0 1 0 0->0] [0 0 0 0->0]
r 15.008442661 _6_ RTR  --- 1 DSR 32 [0 ffffffff 0 800] ------- [0:255 19:255 32 0] 1 [1 1] [0 1 0 0->0] [0 0 0 0->0]
r 15.008442661 _1_ RTR  --- 1 DSR 32 [0 ffffffff 0 800] ------- [0:255 19:255 32 0] 1 [1 1] [0 1 0 0->0] [0 0 0 0->0]
r 15.008442740 _25_ RTR  --- 1 DSR 32 [0 ffffffff 0 800] ------- [0:255 19:255 32 0] 1 [1 1] [0 1 0 0->0] [0 0 0 0->0]
r 15.008442740 _4_ RTR  --- 1 DSR 32 [0 ffffffff 0 800] ------- [0:255 19:255 32 0] 1 [1 1] [0 1 0 0->0] [0 0 0 0->0]
r 15.010298740 _24_ RTR  --- 6 DSR 44 [13a 18 19 800] ------- [25:255 24:255 254 24] 2 [0 1] [1 1 2 24->25] [0 0 0 0->0]
SFESTs 15.010298740 _24_ 4 [24 -> 25] 1(1) to 25 [24 |25 ]
s 15.010298740 _24_ RTR  --- 4 cbr 548 [0 0 0 0] ------- [24:0 25:0 32 25] [0] 0 0
r 15.016620740 _25_ RTR  --- 4 cbr 548 [13a 19 18 800] ------- [24:0 25:0 32 25] [0] 1 0
r 15.016620740 _25_ AGT  --- 4 cbr 512 [13a 19 18 800] ------- [24:0 25:0 32 25] [0] 1 0
s 15.035499133 _0_ RTR  --- 8 DSR 32 [0 0 0 0] ------- [0:255 19:255 32 0] 1 [1 2] [0 2 0 0->16] [0 0 0 0->0]
r 15.036831467 _3_ RTR  --- 8 DSR 32 [0 ffffffff 0 800] ------- [0:255 19:255 32 0] 1 [1 2] [0 2 0 0->16] [0 0 0 0->0]
r 15.036831467 _29_ RTR  --- 8 DSR 32 [0 ffffffff 0 800] ------- [0:255 19:255 32 0] 1 [1 2] [0 2 0 0->16] [0 0 0 0->0]
r 15.036831605 _27_ RTR  --- 8 DSR 32 [0 ffffffff 0 800] ------- [0:255 19:255 32 0] 1 [1 2] [0 2 0 0->16] [0 0 0 0->0]
r 15.036831800 _6_ RTR  --- 8 DSR 32 [0 ffffffff 0 800] ------- [0:255 19:255 32 0] 1 [1 2] [0 2 0 0->16] [0 0 0 0->0]
r 15.036831800 _1_ RTR  --- 8 DSR 32 [0 ffffffff 0 800] ------- [0:255 19:255 32 0] 1 [1 2] [0 2 0 0->16] [0 0 0 0->0]
r 15.036831879 _25_ RTR  --- 8 DSR 32 [0 ffffffff 0 800] ------- [0:255 19:255 32 0] 1 [1 2] [0 2 0 0->16] [0 0 0 0->0]
r 15.036831879 _4_ RTR  --- 8 DSR 32 [0 ffffffff 0 800] ------- [0:255 19:255 32 0] 1 [1 2] [0 2 0 0->16] [0 0 0 0->0]
f 15.038411332 _3_ RTR  --- 8 DSR 48 [0 ffffffff 0 800] ------- [0:255 19:255 32 0] 2 [1 2] [0 2 0 0->16] [0 0 0 0->0]
f 15.038706944 _6_ RTR  --- 8 DSR 48 [0 ffffffff 0 800] ------- [0:255 19:255 32 0] 2 [1 2] [0 2 0 0->16] [0 0 0 0->0]
f 15.038762697 _4_ RTR  --- 8 DSR 48 [0 ffffffff 0 800] ------- [0:255 19:255 32 0] 2 [1 2] [0 2 0 0->16] [0 0 0 0->0]
r 15.039851665 _0_ RTR  --- 8 DSR 48 [0 ffffffff 3 800] ------- [0:255 19:255 32 0] 2 [1 2] [0 2 0 0->16] [0 0 0 0->0]
r 15.039851665 _6_ RTR  --- 8 DSR 48 [0 ffffffff 3 800] ------- [0:255 19:255 32 0] 2 [1 2] [0 2 0 0->16] [0 0 0 0->0]
r 15.039851665 _27_ RTR  --- 8 DSR 48 [0 ffffffff 3 800] ------- [0:255 19:255 32 0] 2 [1 2] [0 2 0 0->16] [0 0 0 0->0]
r 15.039851803 _25_ RTR  --- 8 DSR 48 [0 ffffffff 3 800] ------- [0:255 19:255 32 0] 2 [1 2] [0 2 0 0->16] [0 0 0 0->0]
r 15.039851803 _29_ RTR  --- 8 DSR 48 [0 ffffffff 3 800] ------- [0:255 19:255 32 0] 2 [1 2] [0 2 0 0->16] [0 0 0 0->0]
r 15.039851999 _9_ RTR  --- 8 DSR 48 [0 ffffffff 3 800] ------- [0:255 19:255 32 0] 2 [1 2] [0 2 0 0->16] [0 0 0 0->0]
r 15.039851999 _4_ RTR  --- 8 DSR 48 [0 ffffffff 3 800] ------- [0:255 19:255 32 0] 2 [1 2] [0 2 0 0->16] [0 0 0 0->0]
r 15.039852077 _23_ RTR  --- 8 DSR 48 [0 ffffffff 3 800] ------- [0:255 19:255 32 0] 2 [1 2] [0 2 0 0->16] [0 0 0 0->0]
r 15.039852077 _1_ RTR  --- 8 DSR 48 [0 ffffffff 3 800] ------- [0:255 19:255 32 0] 2 [1 2] [0 2 0 0->16] [0 0 0 0->0]
r 15.039852077 _7_ RTR  --- 8 DSR 48 [0 ffffffff 3 800] ------- [0:255 19:255 32 0] 2 [1 2] [0 2 0 0->16] [0 0 0 0->0]
f 15.040368497 _29_ RTR  --- 8 DSR 48 [0 ffffffff 0 800] ------- [0:255 19:255 32 0] 2 [1 2] [0 2 0 0->16] [0 0 0 0->0]
r 15.040722332 _1_ RTR  --- 8 DSR 48 [0 ffffffff 4 800] ------- [0:255 19:255 32 0] 2 [1 2] [0 2 0 0->16] [0 0 0 0->0]
r 15.040722332 _27_ RTR  --- 8 DSR 48 [0 ffffffff 4 800] ------- [0:255 19:255 32 0] 2 [1 2] [0 2 0 0->16] [0 0 0 0->0]
r 15.040722332 _7_ RTR  --- 8 DSR 48 [0 ffffffff 4 800] ------- [0:255 19:255 32 0] 2 [1 2] [0 2 0 0->16] [0 0 0 0->0]
r 15.040722332 _26_ RTR  --- 8 DSR 48 [0 ffffffff 4 800] ------- [0:255 19:255 32 0] 2 [1 2] [0 2 0 0->16] [0 0 0 0->0]
r 15.040722470 _29_ RTR  --- 8 DSR 48 [0 ffffffff 4 800] ------- [0:255 19:255 32 0] 2 [1 2] [0 2 0 0->16] [0 0 0 0->0]
r 15.040722470 _25_ RTR  --- 8 DSR 48 [0 ffffffff 4 800] ------- [0:255 19:255 32 0] 2 [1 2] [0 2 0 0->16] [0 0 0 0->0]
r 15.040722470 _24_ RTR  --- 8 DSR 48 [0 ffffffff 4 800] ------- [0:255 19:255 32 0] 2 [1 2] [0 2 0 0->16] [0 0 0 0->0]
r 15.040722470 _28_ RTR  --- 8 DSR 48 [0 ffffffff 4 800] ------- [0:255 19:255 32 0] 2 [1 2] [0 2 0 0->16] [0 0 0 0->0]
r 15.040722665 _3_ RTR  --- 8 DSR 48 [0 ffffffff 4 800] ------- [0:255 19:255 32 0] 2 [1 2] [0 2 0 0->16] [0 0 0 0->0]
r 15.040722665 _10_ RTR  --- 8 DSR 48 [0 ffffffff 4 800] ------- [0:255 19:255 32 0] 2 [1 2] [0 2 0 0->16] [0 0 0 0->0]
r 15.040722665 _5_ RTR  --- 8 DSR 48 [0 ffffffff 4 800] ------- [0:255 19:255 32 0] 2 [1 2] [0 2 0 0->16] [0 0 0 0->0]
r 15.040722744 _23_ RTR  --- 8 DSR 48 [0 ffffffff 4 800] ------- [0:255 19:255 32 0] 2 [1 2] [0 2 0 0->16] [0 0 0 0->0]
r 15.040722744 _6_ RTR  --- 8 DSR 48 [0 ffffffff 4 800] ------- [0:255 19:255 32 0] 2 [1 2] [0 2 0 0->16] [0 0 0 0->0]
r 15.040722744 _0_ RTR  --- 8 DSR 48 [0 ffffffff 4 800] ------- [0:255 19:255 32 0] 2 [1 2] [0 2 0 0->16] [0 0 0 0->0]
r 15.040722744 _22_ RTR  --- 8 DSR 48 [0 ffffffff 4 800] ------- [0:255 19:255 32 0] 2 [1 2] [0 2 0 0->16] [0 0 0 0->0]
r 15.040722744 _2_ RTR  --- 8 DSR 48 [0 ffffffff 4 800] ------- [0:255 19:255 32 0] 2 [1 2] [0 2 0 0->16] [0 0 0 0->0]
r 15.040722744 _8_ RTR  --- 8 DSR 48 [0 ffffffff 4 800] ------- [0:255 19:255 32 0] 2 [1 2] [0 2 0 0->16] [0 0 0 0->0]
f 15.040756105 _23_ RTR  --- 8 DSR 68 [0 ffffffff 3 800] ------- [0:255 19:255 32 0] 3 [1 2] [0 2 0 0->16] [0 0 0 0->0]
r 15.041633077 _3_ RTR  --- 8 DSR 48 [0 ffffffff 6 800] ------- [0:255 19:255 32 0] 2 [1 2] [0 2 0 0->16] [0 0 0 0->0]
r 15.041633077 _9_ RTR  --- 8 DSR 48 [0 ffffffff 6 800] ------- [0:255 19:255 32 0] 2 [1 2] [0 2 0 0->16] [0 0 0 0->0]
r 15.041633077 _25_ RTR  --- 8 DSR 48 [0 ffffffff 6 800] ------- [0:255 19:255 32 0] 2 [1 2] [0 2 0 0->16] [0 0 0 0->0]
r 15.041633215 _23_ RTR  --- 8 DSR 48 [0 ffffffff 6 800] ------- [0:255 19:255 32 0] 2 [1 2] [0 2 0 0->16] [0 0 0 0->0]
r 15.041633215 _27_ RTR  --- 8 DSR 48 [0 ffffffff 6 800] ------- [0:255 19:255 32 0] 2 [1 2] [0 2 0 0->16] [0 0 0 0->0]
r 15.041633411 _0_ RTR  --- 8 DSR 48 [0 ffffffff 6 800] ------- [0:255 19:255 32 0] 2 [1 2] [0 2 0 0->16] [0 0 0 0->0]
r 15.041633411 _12_ RTR  --- 8 DSR 48 [0 ffffffff 6 800] ------- [0:255 19:255 32 0] 2 [1 2] [0 2 0 0->16] [0 0 0 0->0]
r 15.041633411 _7_ RTR  --- 8 DSR 48 [0 ffffffff 6 800] ------- [0:255 19:255 32 0] 2 [1 2] [0 2 0 0->16] [0 0 0 0->0]
r 15.041633489 _21_ RTR  --- 8 DSR 48 [0 ffffffff 6 800] ------- [0:255 19:255 32 0] 2 [1 2] [0 2 0 0->16] [0 0 0 0->0]
r 15.041633489 _29_ RTR  --- 8 DSR 48 [0 ffffffff 6 800] ------- [0:255 19:255 32 0] 2 [1 2] [0 2 0 0->16] [0 0 0 0->0]
r 15.041633489 _4_ RTR  --- 8 DSR 48 [0 ffffffff 6 800] ------- [0:255 19:255 32 0] 2 [1 2] [0 2 0 0->16] [0 0 0 0->0]
r 15.041633489 _10_ RTR  --- 8 DSR 48 [0 ffffffff 6 800] ------- [0:255 19:255 32 0] 2 [1 2] [0 2 0 0->16] [0 0 0 0->0]
f 15.042628082 _5_ RTR  --- 8 DSR 68 [0 ffffffff 4 800] ------- [0:255 19:255 32 0] 3 [1 2] [0 2 0 0->16] [0 0 0 0->0]
r 15.042643823 _27_ RTR  --- 8 DSR 48 [0 ffffffff 1d 800] ------- [0:255 19:255 32 0] 2 [1 2] [0 2 0 0->16] [0 0 0 0->0]
r 15.042643823 _0_ RTR  --- 8 DSR 48 [0 ffffffff 1d 800] ------- [0:255 19:255 32 0] 2 [1 2] [0 2 0 0->16] [0 0 0 0->0]
r 15.042643823 _1_ RTR  --- 8 DSR 48 [0 ffffffff 1d 800] ------- [0:255 19:255 32 0] 2 [1 2] [0 2 0 0->16] [0 0 0 0->0]
r 15.042643961 _3_ RTR  --- 8 DSR 48 [0 ffffffff 1d 800] ------- [0:255 19:255 32 0] 2 [1 2] [0 2 0 0->16] [0 0 0 0->0]
r 15.042643961 _4_ RTR  --- 8 DSR 48 [0 ffffffff 1d 800] ------- [0:255 19:255 32 0] 2 [1 2] [0 2 0 0->16] [0 0 0 0->0]
r 15.042644156 _25_ RTR  --- 8 DSR 48 [0 ffffffff 1d 800] ------- [0:255 19:255 32 0] 2 [1 2] [0 2 0 0->16] [0 0 0 0->0]
r 15.042644156 _28_ RTR  --- 8 DSR 48 [0 ffffffff 1d 800] ------- [0:255 19:255 32 0] 2 [1 2] [0 2 0 0->16] [0 0 0 0->0]
r 15.042644235 _6_ RTR  --- 8 DSR 48 [0 ffffffff 1d 800] ------- [0:255 19:255 32 0] 2 [1 2] [0 2 0 0->16] [0 0 0 0->0]
r 15.042644235 _7_ RTR  --- 8 DSR 48 [0 ffffffff 1d 800] ------- [0:255 19:255 32 0] 2 [1 2] [0 2 0 0->16] [0 0 0 0->0]
r 15.042644235 _26_ RTR  --- 8 DSR 48 [0 ffffffff 1d 800] ------- [0:255 19:255 32 0] 2 [1 2] [0 2 0 0->16] [0 0 0 0->0]
f 15.043263204 _9_ RTR  --- 8 DSR 68 [0 ffffffff 3 800] ------- [0:255 19:255 32 0] 3 [1 2] [0 2 0 0->16] [0 0 0 0->0]
f 15.043832475 _10_ RTR  --- 8 DSR 68 [0 ffffffff 4 800] ------- [0:255 19:255 32 0] 3 [1 2] [0 2 0 0->16] [0 0 0 0->0]
r 15.044118823 _21_ RTR  --- 8 DSR 68 [0 ffffffff 17 800] ------- [0:255 19:255 32 0] 3 [1 2] [0 2 0 0->16] [0 0 0 0->0]
r 15.044118823 _9_ RTR  --- 8 DSR 68 [0 ffffffff 17 800] ------- [0:255 19:255 32 0] 3 [1 2] [0 2 0 0->16] [0 0 0 0->0]
r 15.044118823 _25_ RTR  --- 8 DSR 68 [0 ffffffff 17 800] ------- [0:255 19:255 32 0] 3 [1 2] [0 2 0 0->16] [0 0 0 0->0]
r 15.044118823 _10_ RTR  --- 8 DSR 68 [0 ffffffff 17 800] ------- [0:255 19:255 32 0] 3 [1 2] [0 2 0 0->16] [0 0 0 0->0]
r 15.044118961 _12_ RTR  --- 8 DSR 68 [0 ffffffff 17 800] ------- [0:255 19:255 32 0] 3 [1 2] [0 2 0 0->16] [0 0 0 0->0]
r 15.044118961 _6_ RTR  --- 8 DSR 68 [0 ffffffff 17 800] ------- [0:255 19:255 32 0] 3 [1 2] [0 2 0 0->16] [0 0 0 0->0]
r 15.044118961 _7_ RTR  --- 8 DSR 68 [0 ffffffff 17 800] ------- [0:255 19:255 32 0] 3 [1 2] [0 2 0 0->16] [0 0 0 0->0]
r 15.044118961 _13_ RTR  --- 8 DSR 68 [0 ffffffff 17 800] ------- [0:255 19:255 32 0] 3 [1 2] [0 2 0 0->16] [0 0 0 0->0]
r 15.044119156 _19_ RTR  --- 8 DSR 68 [0 ffffffff 17 800] ------- [0:255 19:255 32 0] 3 [1 2] [0 2 0 0->16] [0 0 0 0->0]
r 15.044119156 _27_ RTR  --- 8 DSR 68 [0 ffffffff 17 800] ------- [0:255 19:255 32 0] 3 [1 2] [0 2 0 0->16] [0 0 0 0->0]
r 15.044119156 _22_ RTR  --- 8 DSR 68 [0 ffffffff 17 800] ------- [0:255 19:255 32 0] 3 [1 2] [0 2 0 0->16] [0 0 0 0->0]
r 15.044119235 _15_ RTR  --- 8 DSR 68 [0 ffffffff 17 800] ------- [0:255 19:255 32 0] 3 [1 2] [0 2 0 0->16] [0 0 0 0->0]
r 15.044119235 _3_ RTR  --- 8 DSR 68 [0 ffffffff 17 800] ------- [0:255 19:255 32 0] 3 [1 2] [0 2 0 0->16] [0 0 0 0->0]
r 15.044119235 _4_ RTR  --- 8 DSR 68 [0 ffffffff 17 800] ------- [0:255 19:255 32 0] 3 [1 2] [0 2 0 0->16] [0 0 0 0->0]
r 15.044119235 _16_ RTR  --- 8 DSR 68 [0 ffffffff 17 800] ------- [0:255 19:255 32 0] 3 [1 2] [0 2 0 0->16] [0 0 0 0->0]
r 15.044119235 _20_ RTR  --- 8 DSR 68 [0 ffffffff 17 800] ------- [0:255 19:255 32 0] 3 [1 2] [0 2 0 0->16] [0 0 0 0->0]
r 15.044119235 _24_ RTR  --- 8 DSR 68 [0 ffffffff 17 800] ------- [0:255 19:255 32 0] 3 [1 2] [0 2 0 0->16] [0 0 0 0->0]
f 15.045061066 _1_ RTR  --- 8 DSR 48 [0 ffffffff 0 800] ------- [0:255 19:255 32 0] 2 [1 2] [0 2 0 0->16] [0 0 0 0->0]
r 15.045369156 _7_ RTR  --- 8 DSR 68 [0 ffffffff a 800] ------- [0:255 19:255 32 0] 3 [1 2] [0 2 0 0->16] [0 0 0 0->0]
r 15.045369156 _23_ RTR  --- 8 DSR 68 [0 ffffffff a 800] ------- [0:255 19:255 32 0] 3 [1 2] [0 2 0 0->16] [0 0 0 0->0]
r 15.045369156 _13_ RTR  --- 8 DSR 68 [0 ffffffff a 800] ------- [0:255 19:255 32 0] 3 [1 2] [0 2 0 0->16] [0 0 0 0->0]
r 15.045369156 _22_ RTR  --- 8 DSR 68 [0 ffffffff a 800] ------- [0:255 19:255 32 0] 3 [1 2] [0 2 0 0->16] [0 0 0 0->0]
r 15.045369294 _25_ RTR  --- 8 DSR 68 [0 ffffffff a 800] ------- [0:255 19:255 32 0] 3 [1 2] [0 2 0 0->16] [0 0 0 0->0]
r 15.045369294 _21_ RTR  --- 8 DSR 68 [0 ffffffff a 800] ------- [0:255 19:255 32 0] 3 [1 2] [0 2 0 0->16] [0 0 0 0->0]
r 15.045369294 _20_ RTR  --- 8 DSR 68 [0 ffffffff a 800] ------- [0:255 19:255 32 0] 3 [1 2] [0 2 0 0->16] [0 0 0 0->0]
r 15.045369294 _24_ RTR  --- 8 DSR 68 [0 ffffffff a 800] ------- [0:255 19:255 32 0] 3 [1 2] [0 2 0 0->16] [0 0 0 0->0]
r 15.045369489 _4_ RTR  --- 8 DSR 68 [0 ffffffff a 800] ------- [0:255 19:255 32 0] 3 [1 2] [0 2 0 0->16] [0 0 0 0->0]
r 15.045369489 _9_ RTR  --- 8 DSR 68 [0 ffffffff a 800] ------- [0:255 19:255 32 0] 3 [1 2] [0 2 0 0->16] [0 0 0 0->0]
r 15.045369489 _16_ RTR  --- 8 DSR 68 [0 ffffffff a 800] ------- [0:255 19:255 32 0] 3 [1 2] [0 2 0 0->16] [0 0 0 0->0]
r 15.045369489 _11_ RTR  --- 8 DSR 68 [0 ffffffff a 800] ------- [0:255 19:255 32 0] 3 [1 2] [0 2 0 0->16] [0 0 0 0->0]
r 15.045369568 _27_ RTR  --- 8 DSR 68 [0 ffffffff a 800] ------- [0:255 19:255 32 0] 3 [1 2] [0 2 0 0->16] [0 0 0 0->0]
r 15.045369568 _19_ RTR  --- 8 DSR 68 [0 ffffffff a 800] ------- [0:255 19:255 32 0] 3 [1 2] [0 2 0 0->16] [0 0 0 0->0]
r 15.045369568 _12_ RTR  --- 8 DSR 68 [0 ffffffff a 800] ------- [0:255 19:255 32 0] 3 [1 2] [0 2 0 0->16] [0 0 0 0->0]
r 15.045369568 _6_ RTR  --- 8 DSR 68 [0 ffffffff a 800] ------- [0:255 19:255 32 0] 3 [1 2] [0 2 0 0->16] [0 0 0 0->0]
r 15.045369568 _18_ RTR  --- 8 DSR 68 [0 ffffffff a 800] ------- [0:255 19:255 32 0] 3 [1 2] [0 2 0 0->16] [0 0 0 0->0]
r 15.045369568 _26_ RTR  --- 8 DSR 68 [0 ffffffff a 800] ------- [0:255 19:255 32 0] 3 [1 2] [0 2 0 0->16] [0 0 0 0->0]
r 15.045369568 _8_ RTR  --- 8 DSR 68 [0 ffffffff a 800] ------- [0:255 19:255 32 0] 3 [1 2] [0 2 0 0->16] [0 0 0 0->0]
r 15.045369568 _14_ RTR  --- 8 DSR 68 [0 ffffffff a 800] ------- [0:255 19:255 32 0] 3 [1 2] [0 2 0 0->16] [0 0 0 0->0]
f 15.045449458 _26_ RTR  --- 8 DSR 68 [0 ffffffff 4 800] ------- [0:255 19:255 32 0] 3 [1 2] [0 2 0 0->16] [0 0 0 0->0]
f 15.045794229 _25_ RTR  --- 8 DSR 48 [0 ffffffff 0 800] ------- [0:255 19:255 32 0] 2 [1 2] [0 2 0 0->16] [0 0 0 0->0]
f 15.045810255 _11_ RTR  --- 8 DSR 92 [0 ffffffff a 800] ------- [0:255 19:255 32 0] 4 [1 2] [0 2 0 0->16] [0 0 0 0->0]
f 15.046100985 _27_ RTR  --- 8 DSR 48 [0 ffffffff 0 800] ------- [0:255 19:255 32 0] 2 [1 2] [0 2 0 0->16] [0 0 0 0->0]
f 15.046171133 _8_ RTR  --- 8 DSR 68 [0 ffffffff 4 800] ------- [0:255 19:255 32 0] 3 [1 2] [0 2 0 0->16] [0 0 0 0->0]
f 15.046196931 _7_ RTR  --- 8 DSR 68 [0 ffffffff 3 800] ------- [0:255 19:255 32 0] 3 [1 2] [0 2 0 0->16] [0 0 0 0->0]
f 15.046528695 _28_ RTR  --- 8 DSR 68 [0 ffffffff 4 800] ------- [0:255 19:255 32 0] 3 [1 2] [0 2 0 0->16] [0 0 0 0->0]
f 15.046585724 _22_ RTR  --- 8 DSR 68 [0 ffffffff 4 800] ------- [0:255 19:255 32 0] 3 [1 2] [0 2 0 0->16] [0 0 0 0->0]
r 15.046619823 _6_ RTR  --- 8 DSR 68 [0 ffffffff 9 800] ------- [0:255 19:255 32 0] 3 [1 2] [0 2 0 0->16] [0 0 0 0->0]
r 15.046619823 _12_ RTR  --- 8 DSR 68 [0 ffffffff 9 800] ------- [0:255 19:255 32 0] 3 [1 2] [0 2 0 0->16] [0 0 0 0->0]
r 15.046619823 _23_ RTR  --- 8 DSR 68 [0 ffffffff 9 800] ------- [0:255 19:255 32 0] 3 [1 2] [0 2 0 0->16] [0 0 0 0->0]
r 15.046619961 _21_ RTR  --- 8 DSR 68 [0 ffffffff 9 800] ------- [0:255 19:255 32 0] 3 [1 2] [0 2 0 0->16] [0 0 0 0->0]
r 15.046619961 _25_ RTR  --- 8 DSR 68 [0 ffffffff 9 800] ------- [0:255 19:255 32 0] 3 [1 2] [0 2 0 0->16] [0 0 0 0->0]
r 15.046620156 _3_ RTR  --- 8 DSR 68 [0 ffffffff 9 800] ------- [0:255 19:255 32 0] 3 [1 2] [0 2 0 0->16] [0 0 0 0->0]
r 15.046620156 _15_ RTR  --- 8 DSR 68 [0 ffffffff 9 800] ------- [0:255 19:255 32 0] 3 [1 2] [0 2 0 0->16] [0 0 0 0->0]
r 15.046620156 _10_ RTR  --- 8 DSR 68 [0 ffffffff 9 800] ------- [0:255 19:255 32 0] 3 [1 2] [0 2 0 0->16] [0 0 0 0->0]
r 15.046620235 _19_ RTR  --- 8 DSR 68 [0 ffffffff 9 800] ------- [0:255 19:255 32 0] 3 [1 2] [0 2 0 0->16] [0 0 0 0->0]
r 15.046620235 _27_ RTR  --- 8 DSR 68 [0 ffffffff 9 800] ------- [0:255 19:255 32 0] 3 [1 2] [0 2 0 0->16] [0 0 0 0->0]
r 15.046620235 _7_ RTR  --- 8 DSR 68 [0 ffffffff 9 800] ------- [0:255 19:255 32 0] 3 [1 2] [0 2 0 0->16] [0 0 0 0->0]
r 15.046620235 _13_ RTR  --- 8 DSR 68 [0 ffffffff 9 800] ------- [0:255 19:255 32 0] 3 [1 2] [0 2 0 0->16] [0 0 0 0->0]
f 15.047025897 _13_ RTR  --- 8 DSR 92 [0 ffffffff 17 800] ------- [0:255 19:255 32 0] 4 [1 2] [0 2 0 0->16] [0 0 0 0->0]
r 15.047650294 _23_ RTR  --- 8 DSR 48 [0 ffffffff 19 800] ------- [0:255 19:255 32 0] 2 [1 2] [0 2 0 0->16] [0 0 0 0->0]
r 15.047650294 _6_ RTR  --- 8 DSR 48 [0 ffffffff 19 800] ------- [0:255 19:255 32 0] 2 [1 2] [0 2 0 0->16] [0 0 0 0->0]
r 15.047650294 _27_ RTR  --- 8 DSR 48 [0 ffffffff 19 800] ------- [0:255 19:255 32 0] 2 [1 2] [0 2 0 0->16] [0 0 0 0->0]
r 15.047650294 _7_ RTR  --- 8 DSR 48 [0 ffffffff 19 800] ------- [0:255 19:255 32 0] 2 [1 2] [0 2 0 0->16] [0 0 0 0->0]
r 15.047650432 _9_ RTR  --- 8 DSR 48 [0 ffffffff 19 800] ------- [0:255 19:255 32 0] 2 [1 2] [0 2 0 0->16] [0 0 0 0->0]
r 15.047650432 _3_ RTR  --- 8 DSR 48 [0 ffffffff 19 800] ------- [0:255 19:255 32 0] 2 [1 2] [0 2 0 0->16] [0 0 0 0->0]
r 15.047650432 _4_ RTR  --- 8 DSR 48 [0 ffffffff 19 800] ------- [0:255 19:255 32 0] 2 [1 2] [0 2 0 0->16] [0 0 0 0->0]
r 15.047650432 _10_ RTR  --- 8 DSR 48 [0 ffffffff 19 800] ------- [0:255 19:255 32 0] 2 [1 2] [0 2 0 0->16] [0 0 0 0->0]
r 15.047650627 _21_ RTR  --- 8 DSR 48 [0 ffffffff 19 800] ------- [0:255 19:255 32 0] 2 [1 2] [0 2 0 0->16] [0 0 0 0->0]
r 15.047650627 _29_ RTR  --- 8 DSR 48 [0 ffffffff 19 800] ------- [0:255 19:255 32 0] 2 [1 2] [0 2 0 0->16] [0 0 0 0->0]
r 15.047650627 _24_ RTR  --- 8 DSR 48 [0 ffffffff 19 800] ------- [0:255 19:255 32 0] 2 [1 2] [0 2 0 0->16] [0 0 0 0->0]
r 15.047650706 _12_ RTR  --- 8 DSR 48 [0 ffffffff 19 800] ------- [0:255 19:255 32 0] 2 [1 2] [0 2 0 0->16] [0 0 0 0->0]
r 15.047650706 _0_ RTR  --- 8 DSR 48 [0 ffffffff 19 800] ------- [0:255 19:255 32 0] 2 [1 2] [0 2 0 0->16] [0 0 0 0->0]
r 15.047650706 _1_ RTR  --- 8 DSR 48 [0 ffffffff 19 800] ------- [0:255 19:255 32 0] 2 [1 2] [0 2 0 0->16] [0 0 0 0->0]
r 15.047650706 _13_ RTR  --- 8 DSR 48 [0 ffffffff 19 800] ------- [0:255 19:255 32 0] 2 [1 2] [0 2 0 0->16] [0 0 0 0->0]
r 15.047650706 _22_ RTR  --- 8 DSR 48 [0 ffffffff 19 800] ------- [0:255 19:255 32 0] 2 [1 2] [0 2 0 0->16] [0 0 0 0->0]
r 15.047650706 _26_ RTR  --- 8 DSR 48 [0 ffffffff 19 800] ------- [0:255 19:255 32 0] 2 [1 2] [0 2 0 0->16] [0 0 0 0->0]
s 15.048373326 _19_ RTR  --- 9 DSR 60 [0 0 0 0] ------- [19:255 0:255 254 23] 4 [0 2] [1 2 4 0->19] [0 0 0 0->0]
f 15.048623061 _2_ RTR  --- 8 DSR 68 [0 ffffffff 4 800] ------- [0:255 19:255 32 0] 3 [1 2] [0 2 0 0->16] [0 0 0 0->0]
r 15.048760627 _4_ RTR  --- 8 DSR 68 [0 ffffffff 7 800] ------- [0:255 19:255 32 0] 3 [1 2] [0 2 0 0->16] [0 0 0 0->0]
r 15.048760627 _25_ RTR  --- 8 DSR 68 [0 ffffffff 7 800] ------- [0:255 19:255 32 0] 3 [1 2] [0 2 0 0->16] [0 0 0 0->0]
r 15.048760627 _10_ RTR  --- 8 DSR 68 [0 ffffffff 7 800] ------- [0:255 19:255 32 0] 3 [1 2] [0 2 0 0->16] [0 0 0 0->0]
r 15.048760627 _24_ RTR  --- 8 DSR 68 [0 ffffffff 7 800] ------- [0:255 19:255 32 0] 3 [1 2] [0 2 0 0->16] [0 0 0 0->0]
r 15.048760765 _27_ RTR  --- 8 DSR 68 [0 ffffffff 7 800] ------- [0:255 19:255 32 0] 3 [1 2] [0 2 0 0->16] [0 0 0 0->0]
r 15.048760765 _23_ RTR  --- 8 DSR 68 [0 ffffffff 7 800] ------- [0:255 19:255 32 0] 3 [1 2] [0 2 0 0->16] [0 0 0 0->0]
r 15.048760765 _22_ RTR  --- 8 DSR 68 [0 ffffffff 7 800] ------- [0:255 19:255 32 0] 3 [1 2] [0 2 0 0->16] [0 0 0 0->0]
r 15.048760765 _26_ RTR  --- 8 DSR 68 [0 ffffffff 7 800] ------- [0:255 19:255 32 0] 3 [1 2] [0 2 0 0->16] [0 0 0 0->0]
r 15.048760961 _1_ RTR  --- 8 DSR 68 [0 ffffffff 7 800] ------- [0:255 19:255 32 0] 3 [1 2] [0 2 0 0->16] [0 0 0 0->0]
r 15.048760961 _6_ RTR  --- 8 DSR 68 [0 ffffffff 7 800] ------- [0:255 19:255 32 0] 3 [1 2] [0 2 0 0->16] [0 0 0 0->0]
r 15.048760961 _13_ RTR  --- 8 DSR 68 [0 ffffffff 7 800] ------- [0:255 19:255 32 0] 3 [1 2] [0 2 0 0->16] [0 0 0 0->0]
r 15.048760961 _8_ RTR  --- 8 DSR 68 [0 ffffffff 7 800] ------- [0:255 19:255 32 0] 3 [1 2] [0 2 0 0->16] [0 0 0 0->0]
r 15.048761039 _29_ RTR  --- 8 DSR 68 [0 ffffffff 7 800] ------- [0:255 19:255 32 0] 3 [1 2] [0 2 0 0->16] [0 0 0 0->0]
r 15.048761039 _21_ RTR  --- 8 DSR 68 [0 ffffffff 7 800] ------- [0:255 19:255 32 0] 3 [1 2] [0 2 0 0->16] [0 0 0 0->0]
r 15.048761039 _9_ RTR  --- 8 DSR 68 [0 ffffffff 7 800] ------- [0:255 19:255 32 0] 3 [1 2] [0 2 0 0->16] [0 0 0 0->0]
r 15.048761039 _3_ RTR  --- 8 DSR 68 [0 ffffffff 7 800] ------- [0:255 19:255 32 0] 3 [1 2] [0 2 0 0->16] [0 0 0 0->0]
r 15.048761039 _20_ RTR  --- 8 DSR 68 [0 ffffffff 7 800] ------- [0:255 19:255 32 0] 3 [1 2] [0 2 0 0->16] [0 0 0 0->0]
r 15.048761039 _28_ RTR  --- 8 DSR 68 [0 ffffffff 7 800] ------- [0:255 19:255 32 0] 3 [1 2] [0 2 0 0->16] [0 0 0 0->0]
r 15.048761039 _5_ RTR  --- 8 DSR 68 [0 ffffffff 7 800] ------- [0:255 19:255 32 0] 3 [1 2] [0 2 0 0->16] [0 0 0 0->0]
r 15.048761039 _11_ RTR  --- 8 DSR 68 [0 ffffffff 7 800] ------- [0:255 19:255 32 0] 3 [1 2] [0 2 0 0->16] [0 0 0 0->0]
f 15.048839970 _16_ RTR  --- 8 DSR 92 [0 ffffffff 17 800] ------- [0:255 19:255 32 0] 4 [1 2] [0 2 0 0->16] [0 0 0 0->0]
f 15.048895527 _18_ RTR  --- 8 DSR 92 [0 ffffffff a 800] ------- [0:255 19:255 32 0] 4 [1 2] [0 2 0 0->16] [0 0 0 0->0]
f 15.049011999 _21_ RTR  --- 8 DSR 68 [0 ffffffff 6 800] ------- [0:255 19:255 32 0] 3 [1 2] [0 2 0 0->16] [0 0 0 0->0]
f 15.049208449 _24_ RTR  --- 8 DSR 68 [0 ffffffff 4 800] ------- [0:255 19:255 32 0] 3 [1 2] [0 2 0 0->16] [0 0 0 0->0]
r 15.049731099 _25_ RTR  --- 8 DSR 48 [0 ffffffff 1b 800] ------- [0:255 19:255 32 0] 2 [1 2] [0 2 0 0->16] [0 0 0 0->0]
r 15.049731099 _3_ RTR  --- 8 DSR 48 [0 ffffffff 1b 800] ------- [0:255 19:255 32 0] 2 [1 2] [0 2 0 0->16] [0 0 0 0->0]
r 15.049731099 _29_ RTR  --- 8 DSR 48 [0 ffffffff 1b 800] ------- [0:255 19:255 32 0] 2 [1 2] [0 2 0 0->16] [0 0 0 0->0]
r 15.049731099 _4_ RTR  --- 8 DSR 48 [0 ffffffff 1b 800] ------- [0:255 19:255 32 0] 2 [1 2] [0 2 0 0->16] [0 0 0 0->0]
r 15.049731237 _6_ RTR  --- 8 DSR 48 [0 ffffffff 1b 800] ------- [0:255 19:255 32 0] 2 [1 2] [0 2 0 0->16] [0 0 0 0->0]
r 15.049731237 _0_ RTR  --- 8 DSR 48 [0 ffffffff 1b 800] ------- [0:255 19:255 32 0] 2 [1 2] [0 2 0 0->16] [0 0 0 0->0]
r 15.049731237 _1_ RTR  --- 8 DSR 48 [0 ffffffff 1b 800] ------- [0:255 19:255 32 0] 2 [1 2] [0 2 0 0->16] [0 0 0 0->0]
r 15.049731237 _7_ RTR  --- 8 DSR 48 [0 ffffffff 1b 800] ------- [0:255 19:255 32 0] 2 [1 2] [0 2 0 0->16] [0 0 0 0->0]
r 15.049731432 _23_ RTR  --- 8 DSR 48 [0 ffffffff 1b 800] ------- [0:255 19:255 32 0] 2 [1 2] [0 2 0 0->16] [0 0 0 0->0]
r 15.049731432 _26_ RTR  --- 8 DSR 48 [0 ffffffff 1b 800] ------- [0:255 19:255 32 0] 2 [1 2] [0 2 0 0->16] [0 0 0 0->0]
r 15.049731511 _9_ RTR  --- 8 DSR 48 [0 ffffffff 1b 800] ------- [0:255 19:255 32 0] 2 [1 2] [0 2 0 0->16] [0 0 0 0->0]
r 15.049731511 _10_ RTR  --- 8 DSR 48 [0 ffffffff 1b 800] ------- [0:255 19:255 32 0] 2 [1 2] [0 2 0 0->16] [0 0 0 0->0]
r 15.049731511 _24_ RTR  --- 8 DSR 48 [0 ffffffff 1b 800] ------- [0:255 19:255 32 0] 2 [1 2] [0 2 0 0->16] [0 0 0 0->0]
r 15.049731511 _28_ RTR  --- 8 DSR 48 [0 ffffffff 1b 800] ------- [0:255 19:255 32 0] 2 [1 2] [0 2 0 0->16] [0 0 0 0->0]
f 15.050656177 _12_ RTR  --- 8 DSR 68 [0 ffffffff 6 800] ------- [0:255 19:255 32 0] 3 [1 2] [0 2 0 0->16] [0 0 0 0->0]
r 15.050761844 _22_ RTR  --- 8 DSR 68 [0 ffffffff 18 800] ------- [0:255 19:255 32 0] 3 [1 2] [0 2 0 0->16] [0 0 0 0->0]
r 15.050761844 _7_ RTR  --- 8 DSR 68 [0 ffffffff 18 800] ------- [0:255 19:255 32 0] 3 [1 2] [0 2 0 0->16] [0 0 0 0->0]
r 15.050761844 _26_ RTR  --- 8 DSR 68 [0 ffffffff 18 800] ------- [0:255 19:255 32 0] 3 [1 2] [0 2 0 0->16] [0 0 0 0->0]
r 15.050761844 _8_ RTR  --- 8 DSR 68 [0 ffffffff 18 800] ------- [0:255 19:255 32 0] 3 [1 2] [0 2 0 0->16] [0 0 0 0->0]
r 15.050761982 _10_ RTR  --- 8 DSR 68 [0 ffffffff 18 800] ------- [0:255 19:255 32 0] 3 [1 2] [0 2 0 0->16] [0 0 0 0->0]
r 15.050761982 _4_ RTR  --- 8 DSR 68 [0 ffffffff 18 800] ------- [0:255 19:255 32 0] 3 [1 2] [0 2 0 0->16] [0 0 0 0->0]
r 15.050761982 _5_ RTR  --- 8 DSR 68 [0 ffffffff 18 800] ------- [0:255 19:255 32 0] 3 [1 2] [0 2 0 0->16] [0 0 0 0->0]
r 15.050761982 _11_ RTR  --- 8 DSR 68 [0 ffffffff 18 800] ------- [0:255 19:255 32 0] 3 [1 2] [0 2 0 0->16] [0 0 0 0->0]
r 15.050762177 _20_ RTR  --- 8 DSR 68 [0 ffffffff 18 800] ------- [0:255 19:255 32 0] 3 [1 2] [0 2 0 0->16] [0 0 0 0->0]
r 15.050762177 _25_ RTR  --- 8 DSR 68 [0 ffffffff 18 800] ------- [0:255 19:255 32 0] 3 [1 2] [0 2 0 0->16] [0 0 0 0->0]
r 15.050762177 _28_ RTR  --- 8 DSR 68 [0 ffffffff 18 800] ------- [0:255 19:255 32 0] 3 [1 2] [0 2 0 0->16] [0 0 0 0->0]
r 15.050762256 _13_ RTR  --- 8 DSR 68 [0 ffffffff 18 800] ------- [0:255 19:255 32 0] 3 [1 2] [0 2 0 0->16] [0 0 0 0->0]
r 15.050762256 _1_ RTR  --- 8 DSR 68 [0 ffffffff 18 800] ------- [0:255 19:255 32 0] 3 [1 2] [0 2 0 0->16] [0 0 0 0->0]
r 15.050762256 _27_ RTR  --- 8 DSR 68 [0 ffffffff 18 800] ------- [0:255 19:255 32 0] 3 [1 2] [0 2 0 0->16] [0 0 0 0->0]
r 15.050762256 _23_ RTR  --- 8 DSR 68 [0 ffffffff 18 800] ------- [0:255 19:255 32 0] 3 [1 2] [0 2 0 0->16] [0 0 0 0->0]
r 15.050762256 _2_ RTR  --- 8 DSR 68 [0 ffffffff 18 800] ------- [0:255 19:255 32 0] 3 [1 2] [0 2 0 0->16] [0 0 0 0->0]
r 15.050762256 _14_ RTR  --- 8 DSR 68 [0 ffffffff 18 800] ------- [0:255 19:255 32 0] 3 [1 2] [0 2 0 0->16] [0 0 0 0->0]
r 15.051832316 _2_ RTR  --- 8 DSR 68 [0 ffffffff 5 800] ------- [0:255 19:255 32 0] 3 [1 2] [0 2 0 0->16] [0 0 0 0->0]
r 15.051832316 _8_ RTR  --- 8 DSR 68 [0 ffffffff 5 800] ------- [0:255 19:255 32 0] 3 [1 2] [0 2 0 0->16] [0 0 0 0->0]