n -t * -s 0  -x 100 -y 0 -Z 0 -z 30  -v circle -c black
n -t * -s 1  -x 300 -y 0 -Z 0 -z 30  -v circle -c black
n -t * -s 2  -x 500 -y 0 -Z 0 -z 30  -v circle -c black
n -t * -s 3  -x 100 -y 100 -Z 0 -z 30  -v circle -c black
n -t * -s 4  -x 300 -y 100 -Z 0 -z 30  -v circle -c black
n -t * -s 5  -x 500 -y 100 -Z 0 -z 30  -v circle -c black
n -t * -s 6  -x 100 -y 200 -Z 0 -z 30  -v circle -c black
n -t * -s 7  -x 300 -y 200 -Z 0 -z 30  -v circle -c black
n -t * -s 8  -x 500 -y 200 -Z 0 -z 30  -v circle -c black
n -t * -s 9  -x 100 -y 300 -Z 0 -z 30  -v circle -c black
n -t * -s 10  -x 300 -y 300 -Z 0 -z 30  -v circle -c black
n -t * -s 11  -x 500 -y 300 -Z 0 -z 30  -v circle -c black
n -t * -s 12  -x 100 -y 400 -Z 0 -z 30  -v circle -c black
n -t * -s 13  -x 300 -y 400 -Z 0 -z 30  -v circle -c black
n -t * -s 14  -x 500 -y 400 -Z 0 -z 30  -v circle -c black
n -t * -s 15  -x 100 -y 500 -Z 0 -z 30  -v circle -c black
n -t * -s 16  -x 300 -y 500 -Z 0 -z 30  -v circle -c black
n -t * -s 17  -x 500 -y 500 -Z 0 -z 30  -v circle -c black
n -t * -s 18  -x 400 -y 500 -Z 0 -z 30  -v circle -c black
n -t * -s 19  -x 200 -y 500 -Z 0 -z 30  -v circle -c black
n -t * -s 20  -x 400 -y 400 -Z 0 -z 30  -v circle -c black
n -t * -s 21  -x 200 -y 400 -Z 0 -z 30  -v circle -c black
n -t * -s 22  -x 400 -y 300 -Z 0 -z 30  -v circle -c black
n -t * -s 23  -x 200 -y 300 -Z 0 -z 30  -v circle -c black
n -t * -s 24  -x 400 -y 200 -Z 0 -z 30  -v circle -c black
n -t * -s 25  -x 200 -y 200 -Z 0 -z 30  -v circle -c black
n -t * -s 26  -x 400 -y 100 -Z 0 -z 30  -v circle -c black
n -t * -s 27  -x 200 -y 100 -Z 0 -z 30  -v circle -c black
n -t * -s 28  -x 400 -y 0 -Z 0 -z 30  -v circle -c black
n -t * -s 29  -x 200 -y 0 -Z 0 -z 30  -v circle -c black
V -t * -v 1.0a5 -a 0
W -t * -x 500 -y 500
A -t * -n 1 -p 0 -o 0xffffffff -c 31 -a 1
A -t * -h 1 -m 2147483647 -s 0
+ -t 15.000000000 -s 0 -d -1 -p cbr -e 512 -c 2 -a 0 -i 0 -k AGT 
- -t 15.000000000 -s 0 -d -1 -p cbr -e 512 -c 2 -a 0 -i 0 -k AGT
h -t 15.000000000 -s 0 -d -1 -p cbr -e 512 -c 2 -a 0 -i 0 -k AGT
+ -t 15.000000000 -s 1 -d -1 -p cbr -e 512 -c 2 -a 0 -i 2 -k AGT 
- -t 15.000000000 -s 1 -d -1 -p cbr -e 512 -c 2 -a 0 -i 2 -k AGT
h -t 15.000000000 -s 1 -d -1 -p cbr -e 512 -c 2 -a 0 -i 2 -k AGT
+ -t 15.000000000 -s 24 -d -1 -p cbr -e 512 -c 2 -a 0 -i 4 -k AGT 
- -t 15.000000000 -s 24 -d -1 -p cbr -e 512 -c 2 -a 0 -i 4 -k AGT
h -t 15.000000000 -s 24 -d -1 -p cbr -e 512 -c 2 -a 0 -i 4 -k AGT
+ -t 15.004810499 -s 24 -d -1 -p DSR -e 32 -c 2 -a 0 -i 5 -k RTR 
- -t 15.004810499 -s 24 -d -1 -p DSR -e 32 -c 2 -a 0 -i 5 -k RTR
h -t 15.004810499 -s 24 -d -1 -p DSR -e 32 -c 2 -a 0 -i 5 -k RTR
+ -t 15.006287328 -s 1 -d -1 -p DSR -e 32 -c 2 -a 0 -i 3 -k RTR 
- -t 15.006287328 -s 1 -d -1 -p DSR -e 32 -c 2 -a 0 -i 3 -k RTR
h -t 15.006287328 -s 1 -d -1 -p DSR -e 32 -c 2 -a 0 -i 3 -k RTR
+ -t 15.007402038 -s 0 -d -1 -p DSR -e 32 -c 2 -a 0 -i 1 -k RTR 
- -t 15.007402038 -s 0 -d -1 -p DSR -e 32 -c 2 -a 0 -i 1 -k RTR
h -t 15.007402038 -s 0 -d -1 -p DSR -e 32 -c 2 -a 0 -i 1 -k RTR
+ -t 15.007516652 -s 25 -d 24 -p DSR -e 44 -c 2 -a 0 -i 6 -k RTR 
- -t 15.007516652 -s 25 -d 24 -p DSR -e 44 -c 2 -a 0 -i 6 -k RTR
h -t 15.007516652 -s 25 -d 24 -p DSR -e 44 -c 2 -a 0 -i 6 -k RTR
+ -t 15.010298740 -s 24 -d 25 -p cbr -e 548 -c 2 -a 0 -i 4 -k RTR 
- -t 15.010298740 -s 24 -d 25 -p cbr -e 548 -c 2 -a 0 -i 4 -k RTR
h -t 15.010298740 -s 24 -d 25 -p cbr -e 548 -c 2 -a 0 -i 4 -k RTR
r -t 15.016620740 -s 25 -d 25 -p cbr -e 512 -c 2 -a 0 -i 4 -k AGT
+ -t 15.035499133 -s 0 -d -1 -p DSR -e 32 -c 2 -a 0 -i 8 -k RTR 
- -t 15.035499133 -s 0 -d -1 -p DSR -e 32 -c 2 -a 0 -i 8 -k RTR
h -t 15.035499133 -s 0 -d -1 -p DSR -e 32 -c 2 -a 0 -i 8 -k RTR
+ -t 15.038411332 -s 3 -d -1 -p DSR -e 48 -c 2 -a 0 -i 8 -k RTR 
- -t 15.038411332 -s 3 -d -1 -p DSR -e 48 -c 2 -a 0 -i 8 -k RTR
h -t 15.038411332 -s 3 -d -1 -p DSR -e 48 -c 2 -a 0 -i 8 -k RTR
+ -t 15.038706944 -s 6 -d -1 -p DSR -e 48 -c 2 -a 0 -i 8 -k RTR 
- -t 15.038706944 -s 6 -d -1 -p DSR -e 48 -c 2 -a 0 -i 8 -k RTR
h -t 15.038706944 -s 6 -d -1 -p DSR -e 48 -c 2 -a 0 -i 8 -k RTR
+ -t 15.038762697 -s 4 -d -1 -p DSR -e 48 -c 2 -a 0 -i 8 -k RTR 
- -t 15.038762697 -s 4 -d -1 -p DSR -e 48 -c 2 -a 0 -i 8 -k RTR
h -t 15.038762697 -s 4 -d -1 -p DSR -e 48 -c 2 -a 0 -i 8 -k RTR
+ -t 15.040368497 -s 29 -d -1 -p DSR -e 48 -c 2 -a 0 -i 8 -k RTR 
- -t 15.040368497 -s 29 -d -1 -p DSR -e 48 -c 2 -a 0 -i 8 -k RTR
h -t 15.040368497 -s 29 -d -1 -p DSR -e 48 -c 2 -a 0 -i 8 -k RTR
+ -t 15.040756105 -s 23 -d -1 -p DSR -e 68 -c 2 -a 0 -i 8 -k RTR 
- -t 15.040756105 -s 23 -d -1 -p DSR -e 68 -c 2 -a 0 -i 8 -k RTR
h -t 15.040756105 -s 23 -d -1 -p DSR -e 68 -c 2 -a 0 -i 8 -k RTR
+ -t 15.042628082 -s 5 -d -1 -p DSR -e 68 -c 2 -a 0 -i 8 -k RTR 
- -t 15.042628082 -s 5 -d -1 -p DSR -e 68 -c 2 -a 0 -i 8 -k RTR
h -t 15.042628082 -s 5 -d -1 -p DSR -e 68 -c 2 -a 0 -i 8 -k RTR
+ -t 15.043263204 -s 9 -d -1 -p DSR -e 68 -c 2 -a 0 -i 8 -k RTR 
- -t 15.043263204 -s 9 -d -1 -p DSR -e 68 -c 2 -a 0 -i 8 -k RTR
h -t 15.043263204 -s 9 -d -1 -p DSR -e 68 -c 2 -a 0 -i 8 -k RTR
+ -t 15.043832475 -s 10 -d -1 -p DSR -e 68 -c 2 -a 0 -i 8 -k RTR 
- -t 15.043832475 -s 10 -d -1 -p DSR -e 68 -c 2 -a 0 -i 8 -k RTR
h -t 15.043832475 -s 10 -d -1 -p DSR -e 68 -c 2 -a 0 -i 8 -k RTR
+ -t 15.045061066 -s 1 -d -1 -p DSR -e 48 -c 2 -a 0 -i 8 -k RTR 
- -t 15.045061066 -s 1 -d -1 -p DSR -e 48 -c 2 -a 0 -i 8 -k RTR
h -t 15.045061066 -s 1 -d -1 -p DSR -e 48 -c 2 -a 0 -i 8 -k RTR
+ -t 15.045449458 -s 26 -d -1 -p DSR -e 68 -c 2 -a 0 -i 8 -k RTR 
- -t 15.045449458 -s 26 -d -1 -p DSR -e 68 -c 2 -a 0 -i 8 -k RTR
h -t 15.045449458 -s 26 -d -1 -p DSR -e 68 -c 2 -a 0 -i 8 -k RTR
+ -t 15.045794229 -s 25 -d -1 -p DSR -e 48 -c 2 -a 0 -i 8 -k RTR 
- -t 15.045794229 -s 25 -d -1 -p DSR -e 48 -c 2 -a 0 -i 8 -k RTR
h -t 15.045794229 -s 25 -d -1 -p DSR -e 48 -c 2 -a 0 -i 8 -k RTR
+ -t 15.045810255 -s 11 -d -1 -p DSR -e 92 -c 2 -a 0 -i 8 -k RTR 
- -t 15.045810255 -s 11 -d -1 -p DSR -e 92 -c 2 -a 0 -i 8 -k RTR
h -t 15.045810255 -s 11 -d -1 -p DSR -e 92 -c 2 -a 0 -i 8 -k RTR
+ -t 15.046100985 -s 27 -d -1 -p DSR -e 48 -c 2 -a 0 -i 8 -k RTR 
- -t 15.046100985 -s 27 -d -1 -p DSR -e 48 -c 2 -a 0 -i 8 -k RTR
h -t 15.046100985 -s 27 -d -1 -p DSR -e 48 -c 2 -a 0 -i 8 -k RTR
+ -t 15.046171133 -s 8 -d -1 -p DSR -e 68 -c 2 -a 0 -i 8 -k RTR 
- -t 15.046171133 -s 8 -d -1 -p DSR -e 68 -c 2 -a 0 -i 8 -k RTR
h -t 15.046171133 -s 8 -d -1 -p DSR -e 68 -c 2 -a 0 -i 8 -k RTR
+ -t 15.046196931 -s 7 -d -1 -p DSR -e 68 -c 2 -a 0 -i 8 -k RTR 
- -t 15.046196931 -s 7 -d -1 -p DSR -e 68 -c 2 -a 0 -i 8 -k RTR
h -t 15.046196931 -s 7 -d -1 -p DSR -e 68 -c 2 -a 0 -i 8 -k RTR
+ -t 15.046528695 -s 28 -d -1 -p DSR -e 68 -c 2 -a 0 -i 8 -k RTR 
- -t 15.046528695 -s 28 -d -1 -p DSR -e 68 -c 2 -a 0 -i 8 -k RTR
h -t 15.046528695 -s 28 -d -1 -p DSR -e 68 -c 2 -a 0 -i 8 -k RTR
+ -t 15.046585724 -s 22 -d -1 -p DSR -e 68 -c 2 -a 0 -i 8 -k RTR 
- -t 15.046585724 -s 22 -d -1 -p DSR -e 68 -c 2 -a 0 -i 8 -k RTR
h -t 15.046585724 -s 22 -d -1 -p DSR -e 68 -c 2 -a 0 -i 8 -k RTR
+ -t 15.047025897 -s 13 -d -1 -p DSR -e 92 -c 2 -a 0 -i 8 -k RTR 
- -t 15.047025897 -s 13 -d -1 -p DSR -e 92 -c 2 -a 0 -i 8 -k RTR
h -t 15.047025897 -s 13 -d -1 -p DSR -e 92 -c 2 -a 0 -i 8 -k RTR
+ -t 15.048373326 -s 19 -d 23 -p DSR -e 60 -c 2 -a 0 -i 9 -k RTR 
- -t 15.048373326 -s 19 -d 23 -p DSR -e 60 -c 2 -a 0 -i 9 -k RTR
h -t 15.048373326 -s 19 -d 23 -p DSR -e 60 -c 2 -a 0 -i 9 -k RTR
+ -t 15.048623061 -s 2 -d -1 -p DSR -e 68 -c 2 -a 0 -i 8 -k RTR 
- -t 15.048623061 -s 2 -d -1 -p DSR -e 68 -c 2 -a 0 -i 8 -k RTR
h -t 15.048623061 -s 2 -d -1 -p DSR -e 68 -c 2 -a 0 -i 8 -k RTR
+ -t 15.048839970 -s 16 -d -1 -p DSR -e 92 -c 2 -a 0 -i 8 -k RTR 
- -t 15.048839970 -s 16 -d -1 -p DSR -e 92 -c 2 -a 0 -i 8 -k RTR
h -t 15.048839970 -s 16 -d -1 -p DSR -e 92 -c 2 -a 0 -i 8 -k RTR
+ -t 15.048895527 -s 18 -d -1 -p DSR -e 92 -c 2 -a 0 -i 8 -k RTR 
- -t 15.048895527 -s 18 -d -1 -p DSR -e 92 -c 2 -a 0 -i 8 -k RTR
h -t 15.048895527 -s 18 -d -1 -p DSR -e 92 -c 2 -a 0 -i 8 -k RTR
+ -t 15.049011999 -s 21 -d -1 -p DSR -e 68 -c 2 -a 0 -i 8 -k RTR 
- -t 15.049011999 -s 21 -d -1 -p DSR -e 68 -c 2 -a 0 -i 8 -k RTR
h -t 15.049011999 -s 21 -d -1 -p DSR -e 68 -c 2 -a 0 -i 8 -k RTR
+ -t 15.049208449 -s 24 -d -1 -p DSR -e 68 -c 2 -a 0 -i 8 -k RTR 
- -t 15.049208449 -s 24 -d -1 -p DSR -e 68 -c 2 -a 0 -i 8 -k RTR
h -t 15.049208449 -s 24 -d -1 -p DSR -e 68 -c 2 -a 0 -i 8 -k RTR
+ -t 15.050656177 -s 12 -d -1 -p DSR -e 68 -c 2 -a 0 -i 8 -k RTR 
- -t 15.050656177 -s 12 -d -1 -p DSR -e 68 -c 2 -a 0 -i 8 -k RTR
h -t 15.050656177 -s 12 -d -1 -p DSR -e 68 -c 2 -a 0 -i 8 -k RTR
+ -t 15.051986613 -s 19 -d 10 -p DSR -e 60 -c 2 -a 0 -i 10 -k RTR 
- -t 15.051986613 -s 19 -d 10 -p DSR -e 60 -c 2 -a 0 -i 10 -k RTR
h -t 15.051986613 -s 19 -d 10 -p DSR -e 60 -c 2 -a 0 -i 10 -k RTR
+ -t 15.052862059 -s 15 -d -1 -p DSR -e 92 -c 2 -a 0 -i 8 -k RTR 
- -t 15.052862059 -s 15 -d -1 -p DSR -e 92 -c 2 -a 0 -i 8 -k RTR
h -t 15.052862059 -s 15 -d -1 -p DSR -e 92 -c 2 -a 0 -i 8 -k RTR
+ -t 15.053881649 -s 23 -d 3 -p DSR -e 60 -c 2 -a 0 -i 9 -k RTR 
- -t 15.053881649 -s 23 -d 3 -p DSR -e 60 -c 2 -a 0 -i 9 -k RTR
h -t 15.053881649 -s 23 -d 3 -p DSR -e 60 -c 2 -a 0 -i 9 -k RTR
+ -t 15.054000150 -s 20 -d -1 -p DSR -e 92 -c 2 -a 0 -i 8 -k RTR 
- -t 15.054000150 -s 20 -d -1 -p DSR -e 92 -c 2 -a 0 -i 8 -k RTR
h -t 15.054000150 -s 20 -d -1 -p DSR -e 92 -c 2 -a 0 -i 8 -k RTR
+ -t 15.054336273 -s 14 -d -1 -p DSR -e 92 -c 2 -a 0 -i 8 -k RTR 
- -t 15.054336273 -s 14 -d -1 -p DSR -e 92 -c 2 -a 0 -i 8 -k RTR
h -t 15.054336273 -s 14 -d -1 -p DSR -e 92 -c 2 -a 0 -i 8 -k RTR
+ -t 15.055040855 -s 19 -d 9 -p DSR -e 60 -c 2 -a 0 -i 11 -k RTR 
- -t 15.055040855 -s 19 -d 9 -p DSR -e 60 -c 2 -a 0 -i 11 -k RTR
h -t 15.055040855 -s 19 -d 9 -p DSR -e 60 -c 2 -a 0 -i 11 -k RTR
+ -t 15.058174333 -s 17 -d -1 -p DSR -e 120 -c 2 -a 0 -i 8 -k RTR 
- -t 15.058174333 -s 17 -d -1 -p DSR -e 120 -c 2 -a 0 -i 8 -k RTR
h -t 15.058174333 -s 17 -d -1 -p DSR -e 120 -c 2 -a 0 -i 8 -k RTR
+ -t 15.059022084 -s 19 -d 16 -p DSR -e 68 -c 2 -a 0 -i 12 -k RTR 
- -t 15.059022084 -s 19 -d 16 -p DSR -e 68 -c 2 -a 0 -i 12 -k RTR
h -t 15.059022084 -s 19 -d 16 -p DSR -e 68 -c 2 -a 0 -i 12 -k RTR
+ -t 15.063376255 -s 19 -d 20 -p DSR -e 68 -c 2 -a 0 -i 13 -k RTR 
- -t 15.063376255 -s 19 -d 20 -p DSR -e 68 -c 2 -a 0 -i 13 -k RTR
h -t 15.063376255 -s 19 -d 20 -p DSR -e 68 -c 2 -a 0 -i 13 -k RTR
+ -t 15.072758848 -s 10 -d 4 -p DSR -e 60 -c 2 -a 0 -i 10 -k RTR 
- -t 15.072758848 -s 10 -d 4 -p DSR -e 60 -c 2 -a 0 -i 10 -k RTR
h -t 15.072758848 -s 10 -d 4 -p DSR -e 60 -c 2 -a 0 -i 10 -k RTR
+ -t 15.074797418 -s 3 -d 0 -p DSR -e 60 -c 2 -a 0 -i 9 -k RTR 
- -t 15.074797418 -s 3 -d 0 -p DSR -e 60 -c 2 -a 0 -i 9 -k RTR
h -t 15.074797418 -s 3 -d 0 -p DSR -e 60 -c 2 -a 0 -i 9 -k RTR
+ -t 15.075903075 -s 19 -d 21 -p DSR -e 60 -c 2 -a 0 -i 14 -k RTR 
- -t 15.075903075 -s 19 -d 21 -p DSR -e 60 -c 2 -a 0 -i 14 -k RTR
h -t 15.075903075 -s 19 -d 21 -p DSR -e 60 -c 2 -a 0 -i 14 -k RTR
+ -t 15.076774418 -s 0 -d 3 -p cbr -e 556 -c 2 -a 0 -i 0 -k RTR 
- -t 15.076774418 -s 0 -d 3 -p cbr -e 556 -c 2 -a 0 -i 0 -k RTR
h -t 15.076774418 -s 0 -d 3 -p cbr -e 556 -c 2 -a 0 -i 0 -k RTR
+ -t 15.078489109 -s 1 -d -1 -p DSR -e 32 -c 2 -a 0 -i 15 -k RTR 
- -t 15.078489109 -s 1 -d -1 -p DSR -e 32 -c 2 -a 0 -i 15 -k RTR
h -t 15.078489109 -s 1 -d -1 -p DSR -e 32 -c 2 -a 0 -i 15 -k RTR
+ -t 15.083119418 -s 3 -d 23 -p cbr -e 556 -c 2 -a 0 -i 0 -k RTR 
- -t 15.083119418 -s 3 -d 23 -p cbr -e 556 -c 2 -a 0 -i 0 -k RTR
h -t 15.083119418 -s 3 -d 23 -p cbr -e 556 -c 2 -a 0 -i 0 -k RTR
+ -t 15.086570099 -s 20 -d 23 -p DSR -e 68 -c 2 -a 0 -i 13 -k RTR 
- -t 15.086570099 -s 20 -d 23 -p DSR -e 68 -c 2 -a 0 -i 13 -k RTR
h -t 15.086570099 -s 20 -d 23 -p DSR -e 68 -c 2 -a 0 -i 13 -k RTR
+ -t 15.088568570 -s 4 -d 0 -p DSR -e 60 -c 2 -a 0 -i 10 -k RTR 
- -t 15.088568570 -s 4 -d 0 -p DSR -e 60 -c 2 -a 0 -i 10 -k RTR
h -t 15.088568570 -s 4 -d 0 -p DSR -e 60 -c 2 -a 0 -i 10 -k RTR
+ -t 15.092937860 -s 23 -d 3 -p DSR -e 68 -c 2 -a 0 -i 13 -k RTR 
- -t 15.092937860 -s 23 -d 3 -p DSR -e 68 -c 2 -a 0 -i 13 -k RTR
h -t 15.092937860 -s 23 -d 3 -p DSR -e 68 -c 2 -a 0 -i 13 -k RTR
+ -t 15.093905956 -s 3 -d -1 -p DSR -e 48 -c 2 -a 0 -i 15 -k RTR 
- -t 15.093905956 -s 3 -d -1 -p DSR -e 48 -c 2 -a 0 -i 15 -k RTR
h -t 15.093905956 -s 3 -d -1 -p DSR -e 48 -c 2 -a 0 -i 15 -k RTR
+ -t 15.095015527 -s 21 -d 6 -p DSR -e 60 -c 2 -a 0 -i 14 -k RTR 
- -t 15.095015527 -s 21 -d 6 -p DSR -e 60 -c 2 -a 0 -i 14 -k RTR
h -t 15.095015527 -s 21 -d 6 -p DSR -e 60 -c 2 -a 0 -i 14 -k RTR
+ -t 15.097293763 -s 6 -d 0 -p DSR -e 60 -c 2 -a 0 -i 14 -k RTR 
- -t 15.097293763 -s 6 -d 0 -p DSR -e 60 -c 2 -a 0 -i 14 -k RTR
h -t 15.097293763 -s 6 -d 0 -p DSR -e 60 -c 2 -a 0 -i 14 -k RTR
+ -t 15.103179385 -s 0 -d -1 -p cbr -e 512 -c 2 -a 0 -i 16 -k AGT 
- -t 15.103179385 -s 0 -d -1 -p cbr -e 512 -c 2 -a 0 -i 16 -k AGT
h -t 15.103179385 -s 0 -d -1 -p cbr -e 512 -c 2 -a 0 -i 16 -k AGT
+ -t 15.103179385 -s 0 -d 3 -p cbr -e 556 -c 2 -a 0 -i 16 -k RTR 
- -t 15.103179385 -s 0 -d 3 -p cbr -e 556 -c 2 -a 0 -i 16 -k RTR
h -t 15.103179385 -s 0 -d 3 -p cbr -e 556 -c 2 -a 0 -i 16 -k RTR
+ -t 15.105258333 -s 23 -d 19 -p cbr -e 556 -c 2 -a 0 -i 0 -k RTR 
- -t 15.105258333 -s 23 -d 19 -p cbr -e 556 -c 2 -a 0 -i 0 -k RTR
h -t 15.105258333 -s 23 -d 19 -p cbr -e 556 -c 2 -a 0 -i 0 -k RTR
+ -t 15.107380569 -s 3 -d 0 -p DSR -e 68 -c 2 -a 0 -i 13 -k RTR 
- -t 15.107380569 -s 3 -d 0 -p DSR -e 68 -c 2 -a 0 -i 13 -k RTR
h -t 15.107380569 -s 3 -d 0 -p DSR -e 68 -c 2 -a 0 -i 13 -k RTR
+ -t 15.110624138 -s 0 -d 3 -p DSR -e 60 -c 2 -a 0 -i 18 -k RTR 
- -t 15.110624138 -s 0 -d 3 -p DSR -e 60 -c 2 -a 0 -i 18 -k RTR
h -t 15.110624138 -s 0 -d 3 -p DSR -e 60 -c 2 -a 0 -i 18 -k RTR
+ -t 15.110624276 -s 25 -d 3 -p DSR -e 56 -c 2 -a 0 -i 19 -k RTR 
- -t 15.110624276 -s 25 -d 3 -p DSR -e 56 -c 2 -a 0 -i 19 -k RTR
h -t 15.110624276 -s 25 -d 3 -p DSR -e 56 -c 2 -a 0 -i 19 -k RTR
+ -t 15.110624471 -s 9 -d 3 -p DSR -e 60 -c 2 -a 0 -i 20 -k RTR 
- -t 15.110624471 -s 9 -d 3 -p DSR -e 60 -c 2 -a 0 -i 20 -k RTR
h -t 15.110624471 -s 9 -d 3 -p DSR -e 60 -c 2 -a 0 -i 20 -k RTR
+ -t 15.110624550 -s 23 -d 3 -p DSR -e 60 -c 2 -a 0 -i 21 -k RTR 
- -t 15.110624550 -s 23 -d 3 -p DSR -e 60 -c 2 -a 0 -i 21 -k RTR
h -t 15.110624550 -s 23 -d 3 -p DSR -e 60 -c 2 -a 0 -i 21 -k RTR
+ -t 15.110624550 -s 7 -d 3 -p DSR -e 56 -c 2 -a 0 -i 22 -k RTR 
- -t 15.110624550 -s 7 -d 3 -p DSR -e 56 -c 2 -a 0 -i 22 -k RTR
h -t 15.110624550 -s 7 -d 3 -p DSR -e 56 -c 2 -a 0 -i 22 -k RTR
+ -t 15.110977146 -s 24 -d -1 -p cbr -e 512 -c 2 -a 0 -i 23 -k AGT 
- -t 15.110977146 -s 24 -d -1 -p cbr -e 512 -c 2 -a 0 -i 23 -k AGT
h -t 15.110977146 -s 24 -d -1 -p cbr -e 512 -c 2 -a 0 -i 23 -k AGT
+ -t 15.110977146 -s 24 -d 25 -p cbr -e 548 -c 2 -a 0 -i 23 -k RTR 
- -t 15.110977146 -s 24 -d 25 -p cbr -e 548 -c 2 -a 0 -i 23 -k RTR
h -t 15.110977146 -s 24 -d 25 -p cbr -e 548 -c 2 -a 0 -i 23 -k RTR
+ -t 15.113924097 -s 4 -d -1 -p DSR -e 68 -c 2 -a 0 -i 15 -k RTR 
- -t 15.113924097 -s 4 -d -1 -p DSR -e 68 -c 2 -a 0 -i 15 -k RTR
h -t 15.113924097 -s 4 -d -1 -p DSR -e 68 -c 2 -a 0 -i 15 -k RTR
+ -t 15.115405245 -s 29 -d -1 -p DSR -e 68 -c 2 -a 0 -i 15 -k RTR 
- -t 15.115405245 -s 29 -d -1 -p DSR -e 68 -c 2 -a 0 -i 15 -k RTR
h -t 15.115405245 -s 29 -d -1 -p DSR -e 68 -c 2 -a 0 -i 15 -k RTR
+ -t 15.115515853 -s 1 -d -1 -p cbr -e 512 -c 2 -a 0 -i 24 -k AGT 
- -t 15.115515853 -s 1 -d -1 -p cbr -e 512 -c 2 -a 0 -i 24 -k AGT
h -t 15.115515853 -s 1 -d -1 -p cbr -e 512 -c 2 -a 0 -i 24 -k AGT
+ -t 15.116036852 -s 27 -d -1 -p DSR -e 68 -c 2 -a 0 -i 15 -k RTR 
- -t 15.116036852 -s 27 -d -1 -p DSR -e 68 -c 2 -a 0 -i 15 -k RTR
h -t 15.116036852 -s 27 -d -1 -p DSR -e 68 -c 2 -a 0 -i 15 -k RTR
r -t 15.116236550 -s 19 -d 19 -p cbr -e 512 -c 2 -a 0 -i 0 -k AGT
+ -t 15.116394879 -s 6 -d -1 -p DSR -e 68 -c 2 -a 0 -i 15 -k RTR 
- -t 15.116394879 -s 6 -d -1 -p DSR -e 68 -c 2 -a 0 -i 15 -k RTR
h -t 15.116394879 -s 6 -d -1 -p DSR -e 68 -c 2 -a 0 -i 15 -k RTR
+ -t 15.118377550 -s 16 -d 23 -p DSR -e 68 -c 2 -a 0 -i 12 -k RTR 
- -t 15.118377550 -s 16 -d 23 -p DSR -e 68 -c 2 -a 0 -i 12 -k RTR
h -t 15.118377550 -s 16 -d 23 -p DSR -e 68 -c 2 -a 0 -i 12 -k RTR
+ -t 15.120456119 -s 9 -d 3 -p DSR -e 60 -c 2 -a 0 -i 11 -k RTR 
- -t 15.120456119 -s 9 -d 3 -p DSR -e 60 -c 2 -a 0 -i 11 -k RTR
h -t 15.120456119 -s 9 -d 3 -p DSR -e 60 -c 2 -a 0 -i 11 -k RTR
+ -t 15.122434689 -s 3 -d 1 -p DSR -e 60 -c 2 -a 0 -i 21 -k RTR 
- -t 15.122434689 -s 3 -d 1 -p DSR -e 60 -c 2 -a 0 -i 21 -k RTR
h -t 15.122434689 -s 3 -d 1 -p DSR -e 60 -c 2 -a 0 -i 21 -k RTR
+ -t 15.123779689 -s 12 -d 6 -p DSR -e 68 -c 2 -a 0 -i 26 -k RTR 
- -t 15.123779689 -s 12 -d 6 -p DSR -e 68 -c 2 -a 0 -i 26 -k RTR
h -t 15.123779689 -s 12 -d 6 -p DSR -e 68 -c 2 -a 0 -i 26 -k RTR
+ -t 15.123779768 -s 10 -d 6 -p DSR -e 68 -c 2 -a 0 -i 28 -k RTR 
- -t 15.123779768 -s 10 -d 6 -p DSR -e 68 -c 2 -a 0 -i 28 -k RTR
h -t 15.123779768 -s 10 -d 6 -p DSR -e 68 -c 2 -a 0 -i 28 -k RTR
+ -t 15.124683280 -s 21 -d 6 -p DSR -e 60 -c 2 -a 0 -i 27 -k RTR 
- -t 15.124683280 -s 21 -d 6 -p DSR -e 60 -c 2 -a 0 -i 27 -k RTR
h -t 15.124683280 -s 21 -d 6 -p DSR -e 60 -c 2 -a 0 -i 27 -k RTR
+ -t 15.129450689 -s 3 -d 23 -p cbr -e 556 -c 2 -a 0 -i 16 -k RTR 
- -t 15.129450689 -s 3 -d 23 -p cbr -e 556 -c 2 -a 0 -i 16 -k RTR
h -t 15.129450689 -s 3 -d 23 -p cbr -e 556 -c 2 -a 0 -i 16 -k RTR
+ -t 15.131986101 -s 22 -d 4 -p DSR -e 64 -c 2 -a 0 -i 29 -k RTR 
- -t 15.131986101 -s 22 -d 4 -p DSR -e 64 -c 2 -a 0 -i 29 -k RTR
h -t 15.131986101 -s 22 -d 4 -p DSR -e 64 -c 2 -a 0 -i 29 -k RTR
+ -t 15.132768805 -s 28 -d -1 -p DSR -e 92 -c 2 -a 0 -i 15 -k RTR 
- -t 15.132768805 -s 28 -d -1 -p DSR -e 92 -c 2 -a 0 -i 15 -k RTR
h -t 15.132768805 -s 28 -d -1 -p DSR -e 92 -c 2 -a 0 -i 15 -k RTR
+ -t 15.134647908 -s 3 -d 1 -p DSR -e 56 -c 2 -a 0 -i 19 -k RTR 
- -t 15.134647908 -s 3 -d 1 -p DSR -e 56 -c 2 -a 0 -i 19 -k RTR
h -t 15.134647908 -s 3 -d 1 -p DSR -e 56 -c 2 -a 0 -i 19 -k RTR
+ -t 15.135874546 -s 24 -d -1 -p DSR -e 92 -c 2 -a 0 -i 15 -k RTR 
- -t 15.135874546 -s 24 -d -1 -p DSR -e 92 -c 2 -a 0 -i 15 -k RTR
h -t 15.135874546 -s 24 -d -1 -p DSR -e 92 -c 2 -a 0 -i 15 -k RTR
+ -t 15.136047432 -s 8 -d -1 -p DSR -e 92 -c 2 -a 0 -i 15 -k RTR 
- -t 15.136047432 -s 8 -d -1 -p DSR -e 92 -c 2 -a 0 -i 15 -k RTR
h -t 15.136047432 -s 8 -d -1 -p DSR -e 92 -c 2 -a 0 -i 15 -k RTR
+ -t 15.136746574 -s 3 -d 1 -p DSR -e 60 -c 2 -a 0 -i 20 -k RTR 
- -t 15.136746574 -s 3 -d 1 -p DSR -e 60 -c 2 -a 0 -i 20 -k RTR
h -t 15.136746574 -s 3 -d 1 -p DSR -e 60 -c 2 -a 0 -i 20 -k RTR
+ -t 15.138693556 -s 3 -d 1 -p DSR -e 56 -c 2 -a 0 -i 22 -k RTR 
- -t 15.138693556 -s 3 -d 1 -p DSR -e 56 -c 2 -a 0 -i 22 -k RTR
h -t 15.138693556 -s 3 -d 1 -p DSR -e 56 -c 2 -a 0 -i 22 -k RTR
+ -t 15.139746807 -s 1 -d 3 -p cbr -e 556 -c 2 -a 0 -i 2 -k RTR 
- -t 15.139746807 -s 1 -d 3 -p cbr -e 556 -c 2 -a 0 -i 2 -k RTR
h -t 15.139746807 -s 1 -d 3 -p cbr -e 556 -c 2 -a 0 -i 2 -k RTR
+ -t 15.139746807 -s 1 -d 3 -p cbr -e 556 -c 2 -a 0 -i 24 -k RTR 
- -t 15.139746807 -s 1 -d 3 -p cbr -e 556 -c 2 -a 0 -i 24 -k RTR
h -t 15.139746807 -s 1 -d 3 -p cbr -e 556 -c 2 -a 0 -i 24 -k RTR
+ -t 15.139878980 -s 2 -d -1 -p DSR -e 92 -c 2 -a 0 -i 15 -k RTR 
- -t 15.139878980 -s 2 -d -1 -p DSR -e 92 -c 2 -a 0 -i 15 -k RTR
h -t 15.139878980 -s 2 -d -1 -p DSR -e 92 -c 2 -a 0 -i 15 -k RTR
+ -t 15.140401272 -s 26 -d -1 -p DSR -e 92 -c 2 -a 0 -i 15 -k RTR 
- -t 15.140401272 -s 26 -d -1 -p DSR -e 92 -c 2 -a 0 -i 15 -k RTR
h -t 15.140401272 -s 26 -d -1 -p DSR -e 92 -c 2 -a 0 -i 15 -k RTR
+ -t 15.140821595 -s 5 -d -1 -p DSR -e 92 -c 2 -a 0 -i 15 -k RTR 
- -t 15.140821595 -s 5 -d -1 -p DSR -e 92 -c 2 -a 0 -i 15 -k RTR
h -t 15.140821595 -s 5 -d -1 -p DSR -e 92 -c 2 -a 0 -i 15 -k RTR
+ -t 15.141458223 -s 3 -d 1 -p DSR -e 60 -c 2 -a 0 -i 18 -k RTR 
- -t 15.141458223 -s 3 -d 1 -p DSR -e 60 -c 2 -a 0 -i 18 -k RTR
h -t 15.141458223 -s 3 -d 1 -p DSR -e 60 -c 2 -a 0 -i 18 -k RTR
+ -t 15.143506889 -s 3 -d 0 -p DSR -e 60 -c 2 -a 0 -i 11 -k RTR 
- -t 15.143506889 -s 3 -d 0 -p DSR -e 60 -c 2 -a 0 -i 11 -k RTR
h -t 15.143506889 -s 3 -d 0 -p DSR -e 60 -c 2 -a 0 -i 11 -k RTR
+ -t 15.149698660 -s 25 -d 1 -p DSR -e 48 -c 2 -a 0 -i 30 -k RTR 
- -t 15.149698660 -s 25 -d 1 -p DSR -e 48 -c 2 -a 0 -i 30 -k RTR
h -t 15.149698660 -s 25 -d 1 -p DSR -e 48 -c 2 -a 0 -i 30 -k RTR
+ -t 15.149723660 -s 3 -d 25 -p cbr -e 556 -c 2 -a 0 -i 2 -k RTR 
- -t 15.149723660 -s 3 -d 25 -p cbr -e 556 -c 2 -a 0 -i 2 -k RTR
h -t 15.149723660 -s 3 -d 25 -p cbr -e 556 -c 2 -a 0 -i 2 -k RTR
+ -t 15.155825642 -s 25 -d 1 -p DSR -e 48 -c 2 -a 0 -i 31 -k RTR 
- -t 15.155825642 -s 25 -d 1 -p DSR -e 48 -c 2 -a 0 -i 31 -k RTR
h -t 15.155825642 -s 25 -d 1 -p DSR -e 48 -c 2 -a 0 -i 31 -k RTR
+ -t 15.155850642 -s 3 -d 25 -p cbr -e 556 -c 2 -a 0 -i 24 -k RTR 
- -t 15.155850642 -s 3 -d 25 -p cbr -e 556 -c 2 -a 0 -i 24 -k RTR
h -t 15.155850642 -s 3 -d 25 -p cbr -e 556 -c 2 -a 0 -i 24 -k RTR
+ -t 15.164994865 -s 11 -d -1 -p DSR -e 120 -c 2 -a 0 -i 15 -k RTR 
- -t 15.164994865 -s 11 -d -1 -p DSR -e 120 -c 2 -a 0 -i 15 -k RTR
h -t 15.164994865 -s 11 -d -1 -p DSR -e 120 -c 2 -a 0 -i 15 -k RTR
r -t 15.165809075 -s 25 -d 25 -p cbr -e 512 -c 2 -a 0 -i 23 -k AGT
+ -t 15.167920057 -s 4 -d 3 -p DSR -e 64 -c 2 -a 0 -i 29 -k RTR 
- -t 15.167920057 -s 4 -d 3 -p DSR -e 64 -c 2 -a 0 -i 29 -k RTR
h -t 15.167920057 -s 4 -d 3 -p DSR -e 64 -c 2 -a 0 -i 29 -k RTR
+ -t 15.169942960 -s 6 -d 3 -p DSR -e 68 -c 2 -a 0 -i 28 -k RTR 
- -t 15.169942960 -s 6 -d 3 -p DSR -e 68 -c 2 -a 0 -i 28 -k RTR
h -t 15.169942960 -s 6 -d 3 -p DSR -e 68 -c 2 -a 0 -i 28 -k RTR
+ -t 15.171933705 -s 3 -d 1 -p DSR -e 64 -c 2 -a 0 -i 29 -k RTR 
- -t 15.171933705 -s 3 -d 1 -p DSR -e 64 -c 2 -a 0 -i 29 -k RTR
h -t 15.171933705 -s 3 -d 1 -p DSR -e 64 -c 2 -a 0 -i 29 -k RTR
+ -t 15.174055038 -s 3 -d 1 -p DSR -e 68 -c 2 -a 0 -i 28 -k RTR 
- -t 15.174055038 -s 3 -d 1 -p DSR -e 68 -c 2 -a 0 -i 28 -k RTR
h -t 15.174055038 -s 3 -d 1 -p DSR -e 68 -c 2 -a 0 -i 28 -k RTR
+ -t 15.177391815 -s 24 -d -1 -p cbr -e 512 -c 2 -a 0 -i 32 -k AGT 
- -t 15.177391815 -s 24 -d -1 -p cbr -e 512 -c 2 -a 0 -i 32 -k AGT
h -t 15.177391815 -s 24 -d -1 -p cbr -e 512 -c 2 -a 0 -i 32 -k AGT
+ -t 15.177391815 -s 24 -d 25 -p cbr -e 548 -c 2 -a 0 -i 32 -k RTR 
- -t 15.177391815 -s 24 -d 25 -p cbr -e 548 -c 2 -a 0 -i 32 -k RTR
h -t 15.177391815 -s 24 -d 25 -p cbr -e 548 -c 2 -a 0 -i 32 -k RTR
+ -t 15.182951389 -s 20 -d 8 -p DSR -e 76 -c 2 -a 0 -i 33 -k RTR 
- -t 15.182951389 -s 20 -d 8 -p DSR -e 76 -c 2 -a 0 -i 33 -k RTR
h -t 15.182951389 -s 20 -d 8 -p DSR -e 76 -c 2 -a 0 -i 33 -k RTR
+ -t 15.184273722 -s 13 -d 24 -p DSR -e 76 -c 2 -a 0 -i 34 -k RTR 
- -t 15.184273722 -s 13 -d 24 -p DSR -e 76 -c 2 -a 0 -i 34 -k RTR
h -t 15.184273722 -s 13 -d 24 -p DSR -e 76 -c 2 -a 0 -i 34 -k RTR
+ -t 15.186364514 -s 14 -d -1 -p DSR -e 120 -c 2 -a 0 -i 15 -k RTR 
- -t 15.186364514 -s 14 -d -1 -p DSR -e 120 -c 2 -a 0 -i 15 -k RTR
h -t 15.186364514 -s 14 -d -1 -p DSR -e 120 -c 2 -a 0 -i 15 -k RTR
r -t 15.189980977 -s 25 -d 25 -p cbr -e 512 -c 2 -a 0 -i 32 -k AGT
+ -t 15.196956151 -s 24 -d 27 -p DSR -e 76 -c 2 -a 0 -i 34 -k RTR 
- -t 15.196956151 -s 24 -d 27 -p DSR -e 76 -c 2 -a 0 -i 34 -k RTR
h -t 15.196956151 -s 24 -d 27 -p DSR -e 76 -c 2 -a 0 -i 34 -k RTR
+ -t 15.198777368 -s 18 -d 11 -p DSR -e 84 -c 2 -a 0 -i 35 -k RTR 
- -t 15.198777368 -s 18 -d 11 -p DSR -e 84 -c 2 -a 0 -i 35 -k RTR
h -t 15.198777368 -s 18 -d 11 -p DSR -e 84 -c 2 -a 0 -i 35 -k RTR
+ -t 15.200068206 -s 17 -d -1 -p DSR -e 152 -c 2 -a 0 -i 15 -k RTR 
- -t 15.200068206 -s 17 -d -1 -p DSR -e 152 -c 2 -a 0 -i 15 -k RTR
h -t 15.200068206 -s 17 -d -1 -p DSR -e 152 -c 2 -a 0 -i 15 -k RTR
+ -t 15.200569330 -s 8 -d 4 -p DSR -e 76 -c 2 -a 0 -i 33 -k RTR 
- -t 15.200569330 -s 8 -d 4 -p DSR -e 76 -c 2 -a 0 -i 33 -k RTR
h -t 15.200569330 -s 8 -d 4 -p DSR -e 76 -c 2 -a 0 -i 33 -k RTR
+ -t 15.202735566 -s 4 -d 3 -p DSR -e 76 -c 2 -a 0 -i 33 -k RTR 
- -t 15.202735566 -s 4 -d 3 -p DSR -e 76 -c 2 -a 0 -i 33 -k RTR
h -t 15.202735566 -s 4 -d 3 -p DSR -e 76 -c 2 -a 0 -i 33 -k RTR
+ -t 15.208198328 -s 16 -d 14 -p DSR -e 84 -c 2 -a 0 -i 36 -k RTR 
- -t 15.208198328 -s 16 -d 14 -p DSR -e 84 -c 2 -a 0 -i 36 -k RTR
h -t 15.208198328 -s 16 -d 14 -p DSR -e 84 -c 2 -a 0 -i 36 -k RTR
+ -t 15.209926564 -s 23 -d 3 -p DSR -e 68 -c 2 -a 0 -i 12 -k RTR 
- -t 15.209926564 -s 23 -d 3 -p DSR -e 68 -c 2 -a 0 -i 12 -k RTR
h -t 15.209926564 -s 23 -d 3 -p DSR -e 68 -c 2 -a 0 -i 12 -k RTR
+ -t 15.211169935 -s 0 -d -1 -p cbr -e 512 -c 2 -a 0 -i 37 -k AGT 
- -t 15.211169935 -s 0 -d -1 -p cbr -e 512 -c 2 -a 0 -i 37 -k AGT
h -t 15.211169935 -s 0 -d -1 -p cbr -e 512 -c 2 -a 0 -i 37 -k AGT
+ -t 15.211169935 -s 0 -d 3 -p cbr -e 556 -c 2 -a 0 -i 37 -k RTR 
- -t 15.211169935 -s 0 -d 3 -p cbr -e 556 -c 2 -a 0 -i 37 -k RTR
h -t 15.211169935 -s 0 -d 3 -p cbr -e 556 -c 2 -a 0 -i 37 -k RTR
+ -t 15.212083108 -s 27 -d 3 -p DSR -e 76 -c 2 -a 0 -i 34 -k RTR 
- -t 15.212083108 -s 27 -d 3 -p DSR -e 76 -c 2 -a 0 -i 34 -k RTR
h -t 15.212083108 -s 27 -d 3 -p DSR -e 76 -c 2 -a 0 -i 34 -k RTR
+ -t 15.214168108 -s 3 -d 1 -p DSR -e 76 -c 2 -a 0 -i 34 -k RTR 
- -t 15.214168108 -s 3 -d 1 -p DSR -e 76 -c 2 -a 0 -i 34 -k RTR
h -t 15.214168108 -s 3 -d 1 -p DSR -e 76 -c 2 -a 0 -i 34 -k RTR
+ -t 15.216391090 -s 3 -d 0 -p DSR -e 68 -c 2 -a 0 -i 12 -k RTR 
- -t 15.216391090 -s 3 -d 0 -p DSR -e 68 -c 2 -a 0 -i 12 -k RTR
h -t 15.216391090 -s 3 -d 0 -p DSR -e 68 -c 2 -a 0 -i 12 -k RTR
+ -t 15.220236249 -s 11 -d 26 -p DSR -e 84 -c 2 -a 0 -i 35 -k RTR 
- -t 15.220236249 -s 11 -d 26 -p DSR -e 84 -c 2 -a 0 -i 35 -k RTR
h -t 15.220236249 -s 11 -d 26 -p DSR -e 84 -c 2 -a 0 -i 35 -k RTR
+ -t 15.222707191 -s 3 -d 1 -p DSR -e 76 -c 2 -a 0 -i 33 -k RTR 
- -t 15.222707191 -s 3 -d 1 -p DSR -e 76 -c 2 -a 0 -i 33 -k RTR
h -t 15.222707191 -s 3 -d 1 -p DSR -e 76 -c 2 -a 0 -i 33 -k RTR
+ -t 15.229489912 -s 24 -d -1 -p cbr -e 512 -c 2 -a 0 -i 38 -k AGT 
- -t 15.229489912 -s 24 -d -1 -p cbr -e 512 -c 2 -a 0 -i 38 -k AGT
h -t 15.229489912 -s 24 -d -1 -p cbr -e 512 -c 2 -a 0 -i 38 -k AGT
+ -t 15.229489912 -s 24 -d 25 -p cbr -e 532 -c 2 -a 0 -i 38 -k RTR 
- -t 15.229489912 -s 24 -d 25 -p cbr -e 532 -c 2 -a 0 -i 38 -k RTR
h -t 15.229489912 -s 24 -d 25 -p cbr -e 532 -c 2 -a 0 -i 38 -k RTR
+ -t 15.230891094 -s 3 -d 23 -p cbr -e 556 -c 2 -a 0 -i 37 -k RTR 
- -t 15.230891094 -s 3 -d 23 -p cbr -e 556 -c 2 -a 0 -i 37 -k RTR
h -t 15.230891094 -s 3 -d 23 -p cbr -e 556 -c 2 -a 0 -i 37 -k RTR
+ -t 15.233446821 -s 26 -d 27 -p DSR -e 84 -c 2 -a 0 -i 35 -k RTR 
- -t 15.233446821 -s 26 -d 27 -p DSR -e 84 -c 2 -a 0 -i 35 -k RTR
h -t 15.233446821 -s 26 -d 27 -p DSR -e 84 -c 2 -a 0 -i 35 -k RTR
+ -t 15.235816821 -s 27 -d 3 -p DSR -e 84 -c 2 -a 0 -i 35 -k RTR 
- -t 15.235816821 -s 27 -d 3 -p DSR -e 84 -c 2 -a 0 -i 35 -k RTR
h -t 15.235816821 -s 27 -d 3 -p DSR -e 84 -c 2 -a 0 -i 35 -k RTR
+ -t 15.242444607 -s 3 -d 1 -p DSR -e 84 -c 2 -a 0 -i 35 -k RTR 
- -t 15.242444607 -s 3 -d 1 -p DSR -e 84 -c 2 -a 0 -i 35 -k RTR
h -t 15.242444607 -s 3 -d 1 -p DSR -e 84 -c 2 -a 0 -i 35 -k RTR
r -t 15.250815152 -s 25 -d 25 -p cbr -e 512 -c 2 -a 0 -i 38 -k AGT
+ -t 15.253036726 -s 1 -d -1 -p cbr -e 512 -c 2 -a 0 -i 39 -k AGT 
- -t 15.253036726 -s 1 -d -1 -p cbr -e 512 -c 2 -a 0 -i 39 -k AGT
h -t 15.253036726 -s 1 -d -1 -p cbr -e 512 -c 2 -a 0 -i 39 -k AGT
+ -t 15.253036726 -s 1 -d 25 -p cbr -e 552 -c 2 -a 0 -i 39 -k RTR 
- -t 15.253036726 -s 1 -d 25 -p cbr -e 552 -c 2 -a 0 -i 39 -k RTR
h -t 15.253036726 -s 1 -d 25 -p cbr -e 552 -c 2 -a 0 -i 39 -k RTR
+ -t 15.259290011 -s 25 -d 21 -p cbr -e 552 -c 2 -a 0 -i 39 -k RTR 
- -t 15.259290011 -s 25 -d 21 -p cbr -e 552 -c 2 -a 0 -i 39 -k RTR
h -t 15.259290011 -s 25 -d 21 -p cbr -e 552 -c 2 -a 0 -i 39 -k RTR
+ -t 15.261358876 -s 6 -d 3 -p DSR -e 60 -c 2 -a 0 -i 27 -k RTR 
- -t 15.261358876 -s 6 -d 3 -p DSR -e 60 -c 2 -a 0 -i 27 -k RTR
h -t 15.261358876 -s 6 -d 3 -p DSR -e 60 -c 2 -a 0 -i 27 -k RTR
+ -t 15.263475876 -s 3 -d 1 -p DSR -e 60 -c 2 -a 0 -i 27 -k RTR 
- -t 15.263475876 -s 3 -d 1 -p DSR -e 60 -c 2 -a 0 -i 27 -k RTR
h -t 15.263475876 -s 3 -d 1 -p DSR -e 60 -c 2 -a 0 -i 27 -k RTR
r -t 15.269390348 -s 21 -d 21 -p cbr -e 512 -c 2 -a 0 -i 39 -k AGT
+ -t 15.271650971 -s 14 -d 8 -p DSR -e 84 -c 2 -a 0 -i 36 -k RTR 
- -t 15.271650971 -s 14 -d 8 -p DSR -e 84 -c 2 -a 0 -i 36 -k RTR
h -t 15.271650971 -s 14 -d 8 -p DSR -e 84 -c 2 -a 0 -i 36 -k RTR
+ -t 15.276538365 -s 8 -d 4 -p DSR -e 84 -c 2 -a 0 -i 36 -k RTR 
- -t 15.276538365 -s 8 -d 4 -p DSR -e 84 -c 2 -a 0 -i 36 -k RTR
h -t 15.276538365 -s 8 -d 4 -p DSR -e 84 -c 2 -a 0 -i 36 -k RTR
+ -t 15.278988601 -s 4 -d 3 -p DSR -e 84 -c 2 -a 0 -i 36 -k RTR 
- -t 15.278988601 -s 4 -d 3 -p DSR -e 84 -c 2 -a 0 -i 36 -k RTR
h -t 15.278988601 -s 4 -d 3 -p DSR -e 84 -c 2 -a 0 -i 36 -k RTR
+ -t 15.280852579 -s 0 -d -1 -p cbr -e 512 -c 2 -a 0 -i 40 -k AGT 
- -t 15.280852579 -s 0 -d -1 -p cbr -e 512 -c 2 -a 0 -i 40 -k AGT
h -t 15.280852579 -s 0 -d -1 -p cbr -e 512 -c 2 -a 0 -i 40 -k AGT
+ -t 15.280852579 -s 0 -d 3 -p cbr -e 532 -c 2 -a 0 -i 40 -k RTR 
- -t 15.280852579 -s 0 -d 3 -p cbr -e 532 -c 2 -a 0 -i 40 -k RTR
h -t 15.280852579 -s 0 -d 3 -p cbr -e 532 -c 2 -a 0 -i 40 -k RTR
+ -t 15.281178601 -s 3 -d 1 -p DSR -e 84 -c 2 -a 0 -i 36 -k RTR 
- -t 15.281178601 -s 3 -d 1 -p DSR -e 84 -c 2 -a 0 -i 36 -k RTR
h -t 15.281178601 -s 3 -d 1 -p DSR -e 84 -c 2 -a 0 -i 36 -k RTR
+ -t 15.291361485 -s 3 -d 23 -p cbr -e 532 -c 2 -a 0 -i 40 -k RTR 
- -t 15.291361485 -s 3 -d 23 -p cbr -e 532 -c 2 -a 0 -i 40 -k RTR
h -t 15.291361485 -s 3 -d 23 -p cbr -e 532 -c 2 -a 0 -i 40 -k RTR
+ -t 15.304412665 -s 23 -d 19 -p cbr -e 556 -c 2 -a 0 -i 16 -k RTR 
- -t 15.304412665 -s 23 -d 19 -p cbr -e 556 -c 2 -a 0 -i 16 -k RTR
h -t 15.304412665 -s 23 -d 19 -p cbr -e 556 -c 2 -a 0 -i 16 -k RTR
+ -t 15.306504920 -s 6 -d 3 -p DSR -e 68 -c 2 -a 0 -i 26 -k RTR 
- -t 15.306504920 -s 6 -d 3 -p DSR -e 68 -c 2 -a 0 -i 26 -k RTR
h -t 15.306504920 -s 6 -d 3 -p DSR -e 68 -c 2 -a 0 -i 26 -k RTR
r -t 15.312591391 -s 19 -d 19 -p cbr -e 512 -c 2 -a 0 -i 16 -k AGT
+ -t 15.318882180 -s 25 -d 21 -p cbr -e 556 -c 2 -a 0 -i 2 -k RTR 
- -t 15.318882180 -s 25 -d 21 -p cbr -e 556 -c 2 -a 0 -i 2 -k RTR
h -t 15.318882180 -s 25 -d 21 -p cbr -e 556 -c 2 -a 0 -i 2 -k RTR