Sconfig 0.00000 tap: on snoop: rts? on errs? on
Sconfig 0.00000 salvage: on !bd replies? on
Sconfig 0.00000 grat error: on grat reply: on
Sconfig 0.00000 $reply for props: on ring 0 search: on
Sconfig 0.00000 using MOBICACHE
s 15.000000000 _0_ AGT  --- 0 cbr 512 [0 0 0 0] ------- [0:0 7:0 32 0] [0] 0 0
r 15.000000000 _0_ RTR  --- 0 cbr 512 [0 0 0 0] ------- [0:0 7:0 32 0] [0] 0 0
s 15.000000000 _1_ AGT  --- 2 cbr 512 [0 0 0 0] ------- [1:0 6:0 32 0] [0] 0 0
r 15.000000000 _1_ RTR  --- 2 cbr 512 [0 0 0 0] ------- [1:0 6:0 32 0] [0] 0 0
s 15.000000000 _3_ AGT  --- 4 cbr 512 [0 0 0 0] ------- [3:0 2:0 32 0] [0] 0 0
r 15.000000000 _3_ RTR  --- 4 cbr 512 [0 0 0 0] ------- [3:0 2:0 32 0] [0] 0 0
s 15.001335177 _1_ RTR  --- 3 DSR 32 [0 0 0 0] ------- [1:255 6:255 32 0] 1 [1 1] [0 1 0 0->0] [0 0 0 0->0]
r 15.002127511 _10_ RTR  --- 3 DSR 32 [0 ffffffff 1 800] ------- [1:255 6:255 32 0] 1 [1 1] [0 1 0 0->0] [0 0 0 0->0]
r 15.002127844 _0_ RTR  --- 3 DSR 32 [0 ffffffff 1 800] ------- [1:255 6:255 32 0] 1 [1 1] [0 1 0 0->0] [0 0 0 0->0]
r 15.002127844 _4_ RTR  --- 3 DSR 32 [0 ffffffff 1 800] ------- [1:255 6:255 32 0] 1 [1 1] [0 1 0 0->0] [0 0 0 0->0]
r 15.002127844 _2_ RTR  --- 3 DSR 32 [0 ffffffff 1 800] ------- [1:255 6:255 32 0] 1 [1 1] [0 1 0 0->0] [0 0 0 0->0]
r 15.002127923 _9_ RTR  --- 3 DSR 32 [0 ffffffff 1 800] ------- [1:255 6:255 32 0] 1 [1 1] [0 1 0 0->0] [0 0 0 0->0]
s 15.006049459 _0_ RTR  --- 1 DSR 32 [0 0 0 0] ------- [0:255 7:255 32 0] 1 [1 1] [0 1 0 0->0] [0 0 0 0->0]
s 15.006696190 _3_ RTR  --- 5 DSR 32 [0 0 0 0] ------- [3:255 2:255 32 0] 1 [1 1] [0 1 0 0->0] [0 0 0 0->0]
r 15.007142126 _3_ RTR  --- 1 DSR 32 [0 ffffffff 0 800] ------- [0:255 7:255 32 0] 1 [1 1] [0 1 0 0->0] [0 0 0 0->0]
r 15.007142126 _1_ RTR  --- 1 DSR 32 [0 ffffffff 0 800] ------- [0:255 7:255 32 0] 1 [1 1] [0 1 0 0->0] [0 0 0 0->0]
r 15.007142205 _10_ RTR  --- 1 DSR 32 [0 ffffffff 0 800] ------- [0:255 7:255 32 0] 1 [1 1] [0 1 0 0->0] [0 0 0 0->0]
r 15.008364793 _0_ RTR  --- 5 DSR 32 [0 ffffffff 3 800] ------- [3:255 2:255 32 0] 1 [1 1] [0 1 0 0->0] [0 0 0 0->0]
r 15.008364793 _6_ RTR  --- 5 DSR 32 [0 ffffffff 3 800] ------- [3:255 2:255 32 0] 1 [1 1] [0 1 0 0->0] [0 0 0 0->0]
r 15.008364793 _4_ RTR  --- 5 DSR 32 [0 ffffffff 3 800] ------- [3:255 2:255 32 0] 1 [1 1] [0 1 0 0->0] [0 0 0 0->0]
r 15.008364871 _10_ RTR  --- 5 DSR 32 [0 ffffffff 3 800] ------- [3:255 2:255 32 0] 1 [1 1] [0 1 0 0->0] [0 0 0 0->0]
s 15.043358529 _3_ RTR  --- 8 DSR 32 [0 0 0 0] ------- [3:255 2:255 32 0] 1 [1 2] [0 2 0 0->16] [0 0 0 0->0]
r 15.044151195 _0_ RTR  --- 8 DSR 32 [0 ffffffff 3 800] ------- [3:255 2:255 32 0] 1 [1 2] [0 2 0 0->16] [0 0 0 0->0]
r 15.044151195 _6_ RTR  --- 8 DSR 32 [0 ffffffff 3 800] ------- [3:255 2:255 32 0] 1 [1 2] [0 2 0 0->16] [0 0 0 0->0]
r 15.044151195 _4_ RTR  --- 8 DSR 32 [0 ffffffff 3 800] ------- [3:255 2:255 32 0] 1 [1 2] [0 2 0 0->16] [0 0 0 0->0]
r 15.044151274 _10_ RTR  --- 8 DSR 32 [0 ffffffff 3 800] ------- [3:255 2:255 32 0] 1 [1 2] [0 2 0 0->16] [0 0 0 0->0]
f 15.046220068 _0_ RTR  --- 8 DSR 48 [0 ffffffff 3 800] ------- [3:255 2:255 32 0] 2 [1 2] [0 2 0 0->16] [0 0 0 0->0]
f 15.046965066 _6_ RTR  --- 8 DSR 48 [0 ffffffff 3 800] ------- [3:255 2:255 32 0] 2 [1 2] [0 2 0 0->16] [0 0 0 0->0]
r 15.047320735 _3_ RTR  --- 8 DSR 48 [0 ffffffff 0 800] ------- [3:255 2:255 32 0] 2 [1 2] [0 2 0 0->16] [0 0 0 0->0]
r 15.047320735 _1_ RTR  --- 8 DSR 48 [0 ffffffff 0 800] ------- [3:255 2:255 32 0] 2 [1 2] [0 2 0 0->16] [0 0 0 0->0]
r 15.047320813 _10_ RTR  --- 8 DSR 48 [0 ffffffff 0 800] ------- [3:255 2:255 32 0] 2 [1 2] [0 2 0 0->16] [0 0 0 0->0]
f 15.047998228 _4_ RTR  --- 8 DSR 48 [0 ffffffff 3 800] ------- [3:255 2:255 32 0] 2 [1 2] [0 2 0 0->16] [0 0 0 0->0]
f 15.048295941 _1_ RTR  --- 8 DSR 68 [0 ffffffff 0 800] ------- [3:255 2:255 32 0] 3 [1 2] [0 2 0 0->16] [0 0 0 0->0]
r 15.048936068 _3_ RTR  --- 8 DSR 48 [0 ffffffff 6 800] ------- [3:255 2:255 32 0] 2 [1 2] [0 2 0 0->16] [0 0 0 0->0]
r 15.048936068 _7_ RTR  --- 8 DSR 48 [0 ffffffff 6 800] ------- [3:255 2:255 32 0] 2 [1 2] [0 2 0 0->16] [0 0 0 0->0]
f 15.049981440 _7_ RTR  --- 8 DSR 68 [0 ffffffff 6 800] ------- [3:255 2:255 32 0] 3 [1 2] [0 2 0 0->16] [0 0 0 0->0]
f 15.050466966 _10_ RTR  --- 8 DSR 48 [0 ffffffff 3 800] ------- [3:255 2:255 32 0] 2 [1 2] [0 2 0 0->16] [0 0 0 0->0]
r 15.050730677 _10_ RTR  --- 8 DSR 48 [0 ffffffff 4 800] ------- [3:255 2:255 32 0] 2 [1 2] [0 2 0 0->16] [0 0 0 0->0]
r 15.050731011 _1_ RTR  --- 8 DSR 48 [0 ffffffff 4 800] ------- [3:255 2:255 32 0] 2 [1 2] [0 2 0 0->16] [0 0 0 0->0]
r 15.050731011 _3_ RTR  --- 8 DSR 48 [0 ffffffff 4 800] ------- [3:255 2:255 32 0] 2 [1 2] [0 2 0 0->16] [0 0 0 0->0]
r 15.050731011 _7_ RTR  --- 8 DSR 48 [0 ffffffff 4 800] ------- [3:255 2:255 32 0] 2 [1 2] [0 2 0 0->16] [0 0 0 0->0]
r 15.050731011 _5_ RTR  --- 8 DSR 48 [0 ffffffff 4 800] ------- [3:255 2:255 32 0] 2 [1 2] [0 2 0 0->16] [0 0 0 0->0]
r 15.050731089 _9_ RTR  --- 8 DSR 48 [0 ffffffff 4 800] ------- [3:255 2:255 32 0] 2 [1 2] [0 2 0 0->16] [0 0 0 0->0]
r 15.051761344 _10_ RTR  --- 8 DSR 68 [0 ffffffff 1 800] ------- [3:255 2:255 32 0] 3 [1 2] [0 2 0 0->16] [0 0 0 0->0]
r 15.051761677 _0_ RTR  --- 8 DSR 68 [0 ffffffff 1 800] ------- [3:255 2:255 32 0] 3 [1 2] [0 2 0 0->16] [0 0 0 0->0]
r 15.051761677 _4_ RTR  --- 8 DSR 68 [0 ffffffff 1 800] ------- [3:255 2:255 32 0] 3 [1 2] [0 2 0 0->16] [0 0 0 0->0]
r 15.051761677 _2_ RTR  --- 8 DSR 68 [0 ffffffff 1 800] ------- [3:255 2:255 32 0] 3 [1 2] [0 2 0 0->16] [0 0 0 0->0]
r 15.051761756 _9_ RTR  --- 8 DSR 68 [0 ffffffff 1 800] ------- [3:255 2:255 32 0] 3 [1 2] [0 2 0 0->16] [0 0 0 0->0]
r 15.052931677 _4_ RTR  --- 8 DSR 48 [0 ffffffff a 800] ------- [3:255 2:255 32 0] 2 [1 2] [0 2 0 0->16] [0 0 0 0->0]
r 15.052931677 _1_ RTR  --- 8 DSR 48 [0 ffffffff a 800] ------- [3:255 2:255 32 0] 2 [1 2] [0 2 0 0->16] [0 0 0 0->0]
r 15.052932011 _9_ RTR  --- 8 DSR 48 [0 ffffffff a 800] ------- [3:255 2:255 32 0] 2 [1 2] [0 2 0 0->16] [0 0 0 0->0]
r 15.052932089 _3_ RTR  --- 8 DSR 48 [0 ffffffff a 800] ------- [3:255 2:255 32 0] 2 [1 2] [0 2 0 0->16] [0 0 0 0->0]
r 15.052932089 _0_ RTR  --- 8 DSR 48 [0 ffffffff a 800] ------- [3:255 2:255 32 0] 2 [1 2] [0 2 0 0->16] [0 0 0 0->0]
r 15.052932089 _2_ RTR  --- 8 DSR 48 [0 ffffffff a 800] ------- [3:255 2:255 32 0] 2 [1 2] [0 2 0 0->16] [0 0 0 0->0]
r 15.052932089 _5_ RTR  --- 8 DSR 48 [0 ffffffff a 800] ------- [3:255 2:255 32 0] 2 [1 2] [0 2 0 0->16] [0 0 0 0->0]
s 15.054285551 _2_ RTR  --- 9 DSR 60 [0 0 0 0] ------- [2:255 3:255 254 1] 4 [0 2] [1 2 4 3->2] [0 0 0 0->0]
r 15.054547011 _4_ RTR  --- 8 DSR 68 [0 ffffffff 7 800] ------- [3:255 2:255 32 0] 3 [1 2] [0 2 0 0->16] [0 0 0 0->0]
r 15.054547011 _6_ RTR  --- 8 DSR 68 [0 ffffffff 7 800] ------- [3:255 2:255 32 0] 3 [1 2] [0 2 0 0->16] [0 0 0 0->0]
r 15.054547011 _8_ RTR  --- 8 DSR 68 [0 ffffffff 7 800] ------- [3:255 2:255 32 0] 3 [1 2] [0 2 0 0->16] [0 0 0 0->0]
f 15.055143129 _9_ RTR  --- 8 DSR 68 [0 ffffffff 4 800] ------- [3:255 2:255 32 0] 3 [1 2] [0 2 0 0->16] [0 0 0 0->0]
s 15.055821192 _2_ RTR  --- 10 DSR 52 [0 0 0 0] ------- [2:255 3:255 254 10] 3 [0 2] [1 2 3 3->2] [0 0 0 0->0]
r 15.056243463 _5_ RTR  --- 8 DSR 68 [0 ffffffff 9 800] ------- [3:255 2:255 32 0] 3 [1 2] [0 2 0 0->16] [0 0 0 0->0]
r 15.056243463 _2_ RTR  --- 8 DSR 68 [0 ffffffff 9 800] ------- [3:255 2:255 32 0] 3 [1 2] [0 2 0 0->16] [0 0 0 0->0]
r 15.056243796 _10_ RTR  --- 8 DSR 68 [0 ffffffff 9 800] ------- [3:255 2:255 32 0] 3 [1 2] [0 2 0 0->16] [0 0 0 0->0]
r 15.056243875 _4_ RTR  --- 8 DSR 68 [0 ffffffff 9 800] ------- [3:255 2:255 32 0] 3 [1 2] [0 2 0 0->16] [0 0 0 0->0]
r 15.056243875 _1_ RTR  --- 8 DSR 68 [0 ffffffff 9 800] ------- [3:255 2:255 32 0] 3 [1 2] [0 2 0 0->16] [0 0 0 0->0]
f 15.057411676 _8_ RTR  --- 8 DSR 92 [0 ffffffff 7 800] ------- [3:255 2:255 32 0] 4 [1 2] [0 2 0 0->16] [0 0 0 0->0]
r 15.057947463 _1_ RTR  --- 9 DSR 60 [13a 1 2 800] ------- [2:255 3:255 254 1] 4 [0 2] [1 2 4 3->2] [0 0 0 0->0]
f 15.057947463 _1_ RTR  --- 9 DSR 60 [13a 1 2 800] ------- [2:255 3:255 253 0] 4 [0 2] [1 2 4 3->2] [0 0 0 0->0]
f 15.059456919 _5_ RTR  --- 8 DSR 68 [0 ffffffff 4 800] ------- [3:255 2:255 32 0] 3 [1 2] [0 2 0 0->16] [0 0 0 0->0]
r 15.059985463 _0_ RTR  --- 9 DSR 60 [13a 0 1 800] ------- [2:255 3:255 253 0] 4 [0 2] [1 2 4 3->2] [0 0 0 0->0]
f 15.059985463 _0_ RTR  --- 9 DSR 60 [13a 0 1 800] ------- [2:255 3:255 252 3] 4 [0 2] [1 2 4 3->2] [0 0 0 0->0]
s 15.061903422 _1_ RTR  --- 11 DSR 32 [0 0 0 0] ------- [1:255 6:255 32 0] 1 [1 2] [0 2 0 0->16] [0 0 0 0->0]
s 15.062476768 _2_ RTR  --- 12 DSR 60 [0 0 0 0] ------- [2:255 3:255 254 9] 4 [0 2] [1 2 4 3->2] [0 0 0 0->0]
r 15.063963463 _3_ RTR  --- 9 DSR 60 [13a 3 0 800] ------- [2:255 3:255 252 3] 4 [0 2] [1 2 4 3->2] [0 0 0 0->0]
SFESTs 15.063963463 _3_ 4 [3 -> 2] 1(1) to 0 [3 |0 1 2 ]
s 15.063963463 _3_ RTR  --- 4 cbr 556 [0 0 0 0] ------- [3:0 2:0 32 0] [0] 0 0
r 15.065444739 _10_ RTR  --- 11 DSR 32 [0 ffffffff 1 800] ------- [1:255 6:255 32 0] 1 [1 2] [0 2 0 0->16] [0 0 0 0->0]
r 15.065445072 _0_ RTR  --- 11 DSR 32 [0 ffffffff 1 800] ------- [1:255 6:255 32 0] 1 [1 2] [0 2 0 0->16] [0 0 0 0->0]
r 15.065445072 _4_ RTR  --- 11 DSR 32 [0 ffffffff 1 800] ------- [1:255 6:255 32 0] 1 [1 2] [0 2 0 0->16] [0 0 0 0->0]
r 15.065445072 _2_ RTR  --- 11 DSR 32 [0 ffffffff 1 800] ------- [1:255 6:255 32 0] 1 [1 2] [0 2 0 0->16] [0 0 0 0->0]
r 15.065445151 _9_ RTR  --- 11 DSR 32 [0 ffffffff 1 800] ------- [1:255 6:255 32 0] 1 [1 2] [0 2 0 0->16] [0 0 0 0->0]
r 15.067025308 _10_ RTR  --- 10 DSR 52 [13a a 2 800] ------- [2:255 3:255 254 10] 3 [0 2] [1 2 3 3->2] [0 0 0 0->0]
f 15.067025308 _10_ RTR  --- 10 DSR 52 [13a a 2 800] ------- [2:255 3:255 253 3] 3 [0 2] [1 2 3 3->2] [0 0 0 0->0]
s 15.067447702 _1_ AGT  --- 14 cbr 512 [0 0 0 0] ------- [1:0 6:0 32 0] [1] 0 0
r 15.067447702 _1_ RTR  --- 14 cbr 512 [0 0 0 0] ------- [1:0 6:0 32 0] [1] 0 0
f 15.067767344 _2_ RTR  --- 11 DSR 48 [0 ffffffff 1 800] ------- [1:255 6:255 32 0] 2 [1 2] [0 2 0 0->16] [0 0 0 0->0]
f 15.067926685 _10_ RTR  --- 11 DSR 48 [0 ffffffff 1 800] ------- [1:255 6:255 32 0] 2 [1 2] [0 2 0 0->16] [0 0 0 0->0]
s 15.068106210 _0_ RTR  --- 13 DSR 32 [0 0 0 0] ------- [0:255 7:255 32 0] 1 [1 2] [0 2 0 0->16] [0 0 0 0->0]
r 15.068530720 _2_ RTR  --- 8 DSR 68 [0 ffffffff 5 800] ------- [3:255 2:255 32 0] 3 [1 2] [0 2 0 0->16] [0 0 0 0->0]
r 15.068530720 _8_ RTR  --- 8 DSR 68 [0 ffffffff 5 800] ------- [3:255 2:255 32 0] 3 [1 2] [0 2 0 0->16] [0 0 0 0->0]
f 15.070627903 _9_ RTR  --- 11 DSR 48 [0 ffffffff 1 800] ------- [1:255 6:255 32 0] 2 [1 2] [0 2 0 0->16] [0 0 0 0->0]
f 15.071744603 _0_ RTR  --- 11 DSR 48 [0 ffffffff 1 800] ------- [1:255 6:255 32 0] 2 [1 2] [0 2 0 0->16] [0 0 0 0->0]
f 15.074211671 _4_ RTR  --- 11 DSR 48 [0 ffffffff 1 800] ------- [1:255 6:255 32 0] 2 [1 2] [0 2 0 0->16] [0 0 0 0->0]
r 15.074527387 _0_ RTR  --- 4 cbr 556 [13a 0 3 800] ------- [3:0 2:0 32 0] [0] 1 0
f 15.074527387 _0_ RTR  --- 4 cbr 556 [13a 0 3 800] ------- [3:0 2:0 31 1] [0] 1 0
r 15.075804054 _3_ RTR  --- 13 DSR 32 [0 ffffffff 0 800] ------- [0:255 7:255 32 0] 1 [1 2] [0 2 0 0->16] [0 0 0 0->0]
r 15.075804054 _1_ RTR  --- 13 DSR 32 [0 ffffffff 0 800] ------- [0:255 7:255 32 0] 1 [1 2] [0 2 0 0->16] [0 0 0 0->0]
r 15.075804132 _10_ RTR  --- 13 DSR 32 [0 ffffffff 0 800] ------- [0:255 7:255 32 0] 1 [1 2] [0 2 0 0->16] [0 0 0 0->0]
r 15.077424368 _3_ RTR  --- 10 DSR 52 [13a 3 a 800] ------- [2:255 3:255 253 3] 3 [0 2] [1 2 3 3->2] [0 0 0 0->0]
s 15.077518121 _2_ RTR  --- 16 DSR 60 [0 0 0 0] ------- [2:255 3:255 254 5] 4 [0 2] [1 2 4 3->2] [0 0 0 0->0]
r 15.078609368 _10_ RTR  --- 11 DSR 48 [0 ffffffff 4 800] ------- [1:255 6:255 32 0] 2 [1 2] [0 2 0 0->16] [0 0 0 0->0]
r 15.078609702 _1_ RTR  --- 11 DSR 48 [0 ffffffff 4 800] ------- [1:255 6:255 32 0] 2 [1 2] [0 2 0 0->16] [0 0 0 0->0]
r 15.078609702 _3_ RTR  --- 11 DSR 48 [0 ffffffff 4 800] ------- [1:255 6:255 32 0] 2 [1 2] [0 2 0 0->16] [0 0 0 0->0]
r 15.078609702 _7_ RTR  --- 11 DSR 48 [0 ffffffff 4 800] ------- [1:255 6:255 32 0] 2 [1 2] [0 2 0 0->16] [0 0 0 0->0]
r 15.078609702 _5_ RTR  --- 11 DSR 48 [0 ffffffff 4 800] ------- [1:255 6:255 32 0] 2 [1 2] [0 2 0 0->16] [0 0 0 0->0]
r 15.078609780 _9_ RTR  --- 11 DSR 48 [0 ffffffff 4 800] ------- [1:255 6:255 32 0] 2 [1 2] [0 2 0 0->16] [0 0 0 0->0]
f 15.078833721 _10_ RTR  --- 13 DSR 48 [0 ffffffff 0 800] ------- [0:255 7:255 32 0] 2 [1 2] [0 2 0 0->16] [0 0 0 0->0]
f 15.079161587 _7_ RTR  --- 11 DSR 68 [0 ffffffff 4 800] ------- [1:255 6:255 32 0] 3 [1 2] [0 2 0 0->16] [0 0 0 0->0]
r 15.079840114 _5_ RTR  --- 11 DSR 48 [0 ffffffff 9 800] ------- [1:255 6:255 32 0] 2 [1 2] [0 2 0 0->16] [0 0 0 0->0]
r 15.079840114 _2_ RTR  --- 11 DSR 48 [0 ffffffff 9 800] ------- [1:255 6:255 32 0] 2 [1 2] [0 2 0 0->16] [0 0 0 0->0]
r 15.079840447 _10_ RTR  --- 11 DSR 48 [0 ffffffff 9 800] ------- [1:255 6:255 32 0] 2 [1 2] [0 2 0 0->16] [0 0 0 0->0]
r 15.079840526 _4_ RTR  --- 11 DSR 48 [0 ffffffff 9 800] ------- [1:255 6:255 32 0] 2 [1 2] [0 2 0 0->16] [0 0 0 0->0]
r 15.079840526 _1_ RTR  --- 11 DSR 48 [0 ffffffff 9 800] ------- [1:255 6:255 32 0] 2 [1 2] [0 2 0 0->16] [0 0 0 0->0]
r 15.080790780 _4_ RTR  --- 11 DSR 48 [0 ffffffff a 800] ------- [1:255 6:255 32 0] 2 [1 2] [0 2 0 0->16] [0 0 0 0->0]
r 15.080790780 _1_ RTR  --- 11 DSR 48 [0 ffffffff a 800] ------- [1:255 6:255 32 0] 2 [1 2] [0 2 0 0->16] [0 0 0 0->0]
r 15.080791114 _9_ RTR  --- 11 DSR 48 [0 ffffffff a 800] ------- [1:255 6:255 32 0] 2 [1 2] [0 2 0 0->16] [0 0 0 0->0]
r 15.080791193 _3_ RTR  --- 11 DSR 48 [0 ffffffff a 800] ------- [1:255 6:255 32 0] 2 [1 2] [0 2 0 0->16] [0 0 0 0->0]
r 15.080791193 _0_ RTR  --- 11 DSR 48 [0 ffffffff a 800] ------- [1:255 6:255 32 0] 2 [1 2] [0 2 0 0->16] [0 0 0 0->0]
r 15.080791193 _2_ RTR  --- 11 DSR 48 [0 ffffffff a 800] ------- [1:255 6:255 32 0] 2 [1 2] [0 2 0 0->16] [0 0 0 0->0]
r 15.080791193 _5_ RTR  --- 11 DSR 48 [0 ffffffff a 800] ------- [1:255 6:255 32 0] 2 [1 2] [0 2 0 0->16] [0 0 0 0->0]
r 15.081660780 _4_ RTR  --- 13 DSR 48 [0 ffffffff a 800] ------- [0:255 7:255 32 0] 2 [1 2] [0 2 0 0->16] [0 0 0 0->0]
r 15.081660780 _1_ RTR  --- 13 DSR 48 [0 ffffffff a 800] ------- [0:255 7:255 32 0] 2 [1 2] [0 2 0 0->16] [0 0 0 0->0]
r 15.081661114 _9_ RTR  --- 13 DSR 48 [0 ffffffff a 800] ------- [0:255 7:255 32 0] 2 [1 2] [0 2 0 0->16] [0 0 0 0->0]
r 15.081661193 _3_ RTR  --- 13 DSR 48 [0 ffffffff a 800] ------- [0:255 7:255 32 0] 2 [1 2] [0 2 0 0->16] [0 0 0 0->0]
r 15.081661193 _0_ RTR  --- 13 DSR 48 [0 ffffffff a 800] ------- [0:255 7:255 32 0] 2 [1 2] [0 2 0 0->16] [0 0 0 0->0]
r 15.081661193 _2_ RTR  --- 13 DSR 48 [0 ffffffff a 800] ------- [0:255 7:255 32 0] 2 [1 2] [0 2 0 0->16] [0 0 0 0->0]
r 15.081661193 _5_ RTR  --- 13 DSR 48 [0 ffffffff a 800] ------- [0:255 7:255 32 0] 2 [1 2] [0 2 0 0->16] [0 0 0 0->0]
f 15.082192519 _2_ RTR  --- 13 DSR 68 [0 ffffffff a 800] ------- [0:255 7:255 32 0] 3 [1 2] [0 2 0 0->16] [0 0 0 0->0]
f 15.082526502 _3_ RTR  --- 13 DSR 48 [0 ffffffff 0 800] ------- [0:255 7:255 32 0] 2 [1 2] [0 2 0 0->16] [0 0 0 0->0]
f 15.082657103 _3_ RTR  --- 11 DSR 68 [0 ffffffff 4 800] ------- [1:255 6:255 32 0] 3 [1 2] [0 2 0 0->16] [0 0 0 0->0]
r 15.082691859 _3_ RTR  --- 11 DSR 48 [0 ffffffff 0 800] ------- [1:255 6:255 32 0] 2 [1 2] [0 2 0 0->16] [0 0 0 0->0]
r 15.082691859 _1_ RTR  --- 11 DSR 48 [0 ffffffff 0 800] ------- [1:255 6:255 32 0] 2 [1 2] [0 2 0 0->16] [0 0 0 0->0]
r 15.082691938 _10_ RTR  --- 11 DSR 48 [0 ffffffff 0 800] ------- [1:255 6:255 32 0] 2 [1 2] [0 2 0 0->16] [0 0 0 0->0]
f 15.083702851 _9_ RTR  --- 13 DSR 68 [0 ffffffff a 800] ------- [0:255 7:255 32 0] 3 [1 2] [0 2 0 0->16] [0 0 0 0->0]
r 15.084699526 _9_ RTR  --- 12 DSR 60 [13a 9 2 800] ------- [2:255 3:255 254 9] 4 [0 2] [1 2 4 3->2] [0 0 0 0->0]
f 15.084699526 _9_ RTR  --- 12 DSR 60 [13a 9 2 800] ------- [2:255 3:255 253 4] 4 [0 2] [1 2 4 3->2] [0 0 0 0->0]
f 15.084873300 _4_ RTR  --- 13 DSR 68 [0 ffffffff a 800] ------- [0:255 7:255 32 0] 3 [1 2] [0 2 0 0->16] [0 0 0 0->0]
f 15.085746292 _1_ RTR  --- 13 DSR 48 [0 ffffffff 0 800] ------- [0:255 7:255 32 0] 2 [1 2] [0 2 0 0->16] [0 0 0 0->0]
r 15.086023859 _5_ RTR  --- 13 DSR 68 [0 ffffffff 9 800] ------- [0:255 7:255 32 0] 3 [1 2] [0 2 0 0->16] [0 0 0 0->0]
r 15.086023859 _2_ RTR  --- 13 DSR 68 [0 ffffffff 9 800] ------- [0:255 7:255 32 0] 3 [1 2] [0 2 0 0->16] [0 0 0 0->0]
r 15.086024193 _10_ RTR  --- 13 DSR 68 [0 ffffffff 9 800] ------- [0:255 7:255 32 0] 3 [1 2] [0 2 0 0->16] [0 0 0 0->0]
r 15.086024271 _4_ RTR  --- 13 DSR 68 [0 ffffffff 9 800] ------- [0:255 7:255 32 0] 3 [1 2] [0 2 0 0->16] [0 0 0 0->0]
r 15.086024271 _1_ RTR  --- 13 DSR 68 [0 ffffffff 9 800] ------- [0:255 7:255 32 0] 3 [1 2] [0 2 0 0->16] [0 0 0 0->0]
r 15.087294193 _9_ RTR  --- 13 DSR 68 [0 ffffffff 2 800] ------- [0:255 7:255 32 0] 3 [1 2] [0 2 0 0->16] [0 0 0 0->0]
r 15.087294526 _1_ RTR  --- 13 DSR 68 [0 ffffffff 2 800] ------- [0:255 7:255 32 0] 3 [1 2] [0 2 0 0->16] [0 0 0 0->0]
r 15.087294526 _5_ RTR  --- 13 DSR 68 [0 ffffffff 2 800] ------- [0:255 7:255 32 0] 3 [1 2] [0 2 0 0->16] [0 0 0 0->0]
r 15.087294605 _10_ RTR  --- 13 DSR 68 [0 ffffffff 2 800] ------- [0:255 7:255 32 0] 3 [1 2] [0 2 0 0->16] [0 0 0 0->0]
f 15.087518342 _5_ RTR  --- 11 DSR 68 [0 ffffffff 4 800] ------- [1:255 6:255 32 0] 3 [1 2] [0 2 0 0->16] [0 0 0 0->0]
f 15.088977336 _5_ RTR  --- 13 DSR 68 [0 ffffffff a 800] ------- [0:255 7:255 32 0] 3 [1 2] [0 2 0 0->16] [0 0 0 0->0]
r 15.089038429 _4_ RTR  --- 12 DSR 60 [13a 4 9 800] ------- [2:255 3:255 253 4] 4 [0 2] [1 2 4 3->2] [0 0 0 0->0]
f 15.089038429 _4_ RTR  --- 12 DSR 60 [13a 4 9 800] ------- [2:255 3:255 252 3] 4 [0 2] [1 2 4 3->2] [0 0 0 0->0]
r 15.090403429 _9_ RTR  --- 11 DSR 68 [0 ffffffff 5 800] ------- [1:255 6:255 32 0] 3 [1 2] [0 2 0 0->16] [0 0 0 0->0]
r 15.090403762 _2_ RTR  --- 11 DSR 68 [0 ffffffff 5 800] ------- [1:255 6:255 32 0] 3 [1 2] [0 2 0 0->16] [0 0 0 0->0]
r 15.090403762 _4_ RTR  --- 11 DSR 68 [0 ffffffff 5 800] ------- [1:255 6:255 32 0] 3 [1 2] [0 2 0 0->16] [0 0 0 0->0]
r 15.090403762 _8_ RTR  --- 11 DSR 68 [0 ffffffff 5 800] ------- [1:255 6:255 32 0] 3 [1 2] [0 2 0 0->16] [0 0 0 0->0]
r 15.090403841 _10_ RTR  --- 11 DSR 68 [0 ffffffff 5 800] ------- [1:255 6:255 32 0] 3 [1 2] [0 2 0 0->16] [0 0 0 0->0]
f 15.091423781 _8_ RTR  --- 11 DSR 92 [0 ffffffff 5 800] ------- [1:255 6:255 32 0] 4 [1 2] [0 2 0 0->16] [0 0 0 0->0]
r 15.091473429 _9_ RTR  --- 13 DSR 68 [0 ffffffff 5 800] ------- [0:255 7:255 32 0] 3 [1 2] [0 2 0 0->16] [0 0 0 0->0]
r 15.091473762 _2_ RTR  --- 13 DSR 68 [0 ffffffff 5 800] ------- [0:255 7:255 32 0] 3 [1 2] [0 2 0 0->16] [0 0 0 0->0]
r 15.091473762 _4_ RTR  --- 13 DSR 68 [0 ffffffff 5 800] ------- [0:255 7:255 32 0] 3 [1 2] [0 2 0 0->16] [0 0 0 0->0]
r 15.091473762 _8_ RTR  --- 13 DSR 68 [0 ffffffff 5 800] ------- [0:255 7:255 32 0] 3 [1 2] [0 2 0 0->16] [0 0 0 0->0]
r 15.091473841 _10_ RTR  --- 13 DSR 68 [0 ffffffff 5 800] ------- [0:255 7:255 32 0] 3 [1 2] [0 2 0 0->16] [0 0 0 0->0]
f 15.091758763 _8_ RTR  --- 13 DSR 92 [0 ffffffff 5 800] ------- [0:255 7:255 32 0] 4 [1 2] [0 2 0 0->16] [0 0 0 0->0]
s 15.092559198 _3_ AGT  --- 17 cbr 512 [0 0 0 0] ------- [3:0 2:0 32 0] [1] 0 0
r 15.092559198 _3_ RTR  --- 17 cbr 512 [0 0 0 0] ------- [3:0 2:0 32 0] [1] 0 0
SFESTs 15.092559198 _3_ 17 [3 -> 2] 3(1) to 10 [3 |10 2 ]
s 15.092559198 _3_ RTR  --- 17 cbr 552 [0 0 0 0] ------- [3:0 2:0 32 10] [1] 0 0
r 15.092756448 _5_ RTR  --- 11 DSR 92 [0 ffffffff 8 800] ------- [1:255 6:255 32 0] 4 [1 2] [0 2 0 0->16] [0 0 0 0->0]
r 15.092756448 _7_ RTR  --- 11 DSR 92 [0 ffffffff 8 800] ------- [1:255 6:255 32 0] 4 [1 2] [0 2 0 0->16] [0 0 0 0->0]
r 15.094198448 _5_ RTR  --- 13 DSR 92 [0 ffffffff 8 800] ------- [0:255 7:255 32 0] 4 [1 2] [0 2 0 0->16] [0 0 0 0->0]
r 15.094198448 _7_ RTR  --- 13 DSR 92 [0 ffffffff 8 800] ------- [0:255 7:255 32 0] 4 [1 2] [0 2 0 0->16] [0 0 0 0->0]
s 15.095536570 _7_ RTR  --- 18 DSR 68 [0 0 0 0] ------- [7:255 0:255 254 8] 5 [0 2] [1 2 5 0->7] [0 0 0 0->0]
r 15.095556743 _4_ RTR  --- 11 DSR 68 [0 ffffffff 7 800] ------- [1:255 6:255 32 0] 3 [1 2] [0 2 0 0->16] [0 0 0 0->0]
r 15.095556743 _6_ RTR  --- 11 DSR 68 [0 ffffffff 7 800] ------- [1:255 6:255 32 0] 3 [1 2] [0 2 0 0->16] [0 0 0 0->0]
r 15.095556743 _8_ RTR  --- 11 DSR 68 [0 ffffffff 7 800] ------- [1:255 6:255 32 0] 3 [1 2] [0 2 0 0->16] [0 0 0 0->0]
r 15.096707077 _10_ RTR  --- 13 DSR 68 [0 ffffffff 4 800] ------- [0:255 7:255 32 0] 3 [1 2] [0 2 0 0->16] [0 0 0 0->0]
r 15.096707410 _1_ RTR  --- 13 DSR 68 [0 ffffffff 4 800] ------- [0:255 7:255 32 0] 3 [1 2] [0 2 0 0->16] [0 0 0 0->0]
r 15.096707410 _3_ RTR  --- 13 DSR 68 [0 ffffffff 4 800] ------- [0:255 7:255 32 0] 3 [1 2] [0 2 0 0->16] [0 0 0 0->0]
r 15.096707410 _7_ RTR  --- 13 DSR 68 [0 ffffffff 4 800] ------- [0:255 7:255 32 0] 3 [1 2] [0 2 0 0->16] [0 0 0 0->0]
r 15.096707410 _5_ RTR  --- 13 DSR 68 [0 ffffffff 4 800] ------- [0:255 7:255 32 0] 3 [1 2] [0 2 0 0->16] [0 0 0 0->0]
r 15.096707489 _9_ RTR  --- 13 DSR 68 [0 ffffffff 4 800] ------- [0:255 7:255 32 0] 3 [1 2] [0 2 0 0->16] [0 0 0 0->0]
r 15.097577743 _10_ RTR  --- 13 DSR 48 [0 ffffffff 1 800] ------- [0:255 7:255 32 0] 2 [1 2] [0 2 0 0->16] [0 0 0 0->0]
r 15.097578077 _0_ RTR  --- 13 DSR 48 [0 ffffffff 1 800] ------- [0:255 7:255 32 0] 2 [1 2] [0 2 0 0->16] [0 0 0 0->0]
r 15.097578077 _4_ RTR  --- 13 DSR 48 [0 ffffffff 1 800] ------- [0:255 7:255 32 0] 2 [1 2] [0 2 0 0->16] [0 0 0 0->0]
r 15.097578077 _2_ RTR  --- 13 DSR 48 [0 ffffffff 1 800] ------- [0:255 7:255 32 0] 2 [1 2] [0 2 0 0->16] [0 0 0 0->0]
r 15.097578155 _9_ RTR  --- 13 DSR 48 [0 ffffffff 1 800] ------- [0:255 7:255 32 0] 2 [1 2] [0 2 0 0->16] [0 0 0 0->0]
r 15.099242077 _3_ RTR  --- 12 DSR 60 [13a 3 4 800] ------- [2:255 3:255 252 3] 4 [0 2] [1 2 4 3->2] [0 0 0 0->0]
r 15.100426743 _0_ RTR  --- 13 DSR 48 [0 ffffffff 3 800] ------- [0:255 7:255 32 0] 2 [1 2] [0 2 0 0->16] [0 0 0 0->0]
r 15.100426743 _6_ RTR  --- 13 DSR 48 [0 ffffffff 3 800] ------- [0:255 7:255 32 0] 2 [1 2] [0 2 0 0->16] [0 0 0 0->0]
r 15.100426743 _4_ RTR  --- 13 DSR 48 [0 ffffffff 3 800] ------- [0:255 7:255 32 0] 2 [1 2] [0 2 0 0->16] [0 0 0 0->0]
s 15.100426743 _6_ RTR  --- 21 DSR 56 [0 0 0 0] ------- [6:255 0:255 255 3] 3 [0 2] [1 2 4 0->7] [0 0 0 0->0]
r 15.100426822 _10_ RTR  --- 13 DSR 48 [0 ffffffff 3 800] ------- [0:255 7:255 32 0] 2 [1 2] [0 2 0 0->16] [0 0 0 0->0]
s 15.103117082 _6_ RTR  --- 19 DSR 60 [0 0 0 0] ------- [6:255 1:255 254 7] 4 [0 2] [1 2 4 1->6] [0 0 0 0->0]
r 15.103208743 _3_ RTR  --- 21 DSR 56 [13a 3 6 800] ------- [6:255 0:255 255 3] 3 [0 2] [1 2 4 0->7] [0 0 0 0->0]
f 15.103208743 _3_ RTR  --- 21 DSR 56 [13a 3 6 800] ------- [6:255 0:255 254 0] 3 [0 2] [1 2 4 0->7] [0 0 0 0->0]
s 15.105156273 _7_ RTR  --- 20 DSR 60 [0 0 0 0] ------- [7:255 0:255 254 4] 4 [0 2] [1 2 4 0->7] [0 0 0 0->0]
r 15.105267410 _7_ RTR  --- 19 DSR 60 [13a 7 6 800] ------- [6:255 1:255 254 7] 4 [0 2] [1 2 4 1->6] [0 0 0 0->0]
f 15.105267410 _7_ RTR  --- 19 DSR 60 [13a 7 6 800] ------- [6:255 1:255 253 4] 4 [0 2] [1 2 4 1->6] [0 0 0 0->0]
r 15.106977019 _0_ RTR  --- 11 DSR 68 [0 ffffffff 3 800] ------- [1:255 6:255 32 0] 3 [1 2] [0 2 0 0->16] [0 0 0 0->0]
r 15.106977019 _6_ RTR  --- 11 DSR 68 [0 ffffffff 3 800] ------- [1:255 6:255 32 0] 3 [1 2] [0 2 0 0->16] [0 0 0 0->0]
r 15.106977019 _4_ RTR  --- 11 DSR 68 [0 ffffffff 3 800] ------- [1:255 6:255 32 0] 3 [1 2] [0 2 0 0->16] [0 0 0 0->0]
r 15.106977098 _10_ RTR  --- 11 DSR 68 [0 ffffffff 3 800] ------- [1:255 6:255 32 0] 3 [1 2] [0 2 0 0->16] [0 0 0 0->0]
s 15.110830093 _6_ RTR  --- 24 DSR 60 [0 0 0 0] ------- [6:255 1:255 254 3] 4 [0 2] [1 2 4 1->6] [0 0 0 0->0]
r 15.112629019 _1_ RTR  --- 4 cbr 556 [13a 1 0 800] ------- [3:0 2:0 31 1] [0] 2 0
f 15.112629019 _1_ RTR  --- 4 cbr 556 [13a 1 0 800] ------- [3:0 2:0 30 2] [0] 2 0
r 15.118555019 _2_ RTR  --- 4 cbr 556 [13a 2 1 800] ------- [3:0 2:0 30 2] [0] 3 0
r 15.118555019 _2_ AGT  --- 4 cbr 512 [13a 2 1 800] ------- [3:0 2:0 30 2] [0] 3 0
r 15.120663844 _3_ RTR  --- 24 DSR 60 [13a 3 6 800] ------- [6:255 1:255 254 3] 4 [0 2] [1 2 4 1->6] [0 0 0 0->0]
f 15.120663844 _3_ RTR  --- 24 DSR 60 [13a 3 6 800] ------- [6:255 1:255 253 4] 4 [0 2] [1 2 4 1->6] [0 0 0 0->0]
r 15.123050786 _8_ RTR  --- 18 DSR 68 [13a 8 7 800] ------- [7:255 0:255 254 8] 5 [0 2] [1 2 5 0->7] [0 0 0 0->0]
f 15.123050786 _8_ RTR  --- 18 DSR 68 [13a 8 7 800] ------- [7:255 0:255 253 5] 5 [0 2] [1 2 5 0->7] [0 0 0 0->0]
r 15.125029453 _4_ RTR  --- 19 DSR 60 [13a 4 7 800] ------- [6:255 1:255 253 4] 4 [0 2] [1 2 4 1->6] [0 0 0 0->0]
f 15.125029453 _4_ RTR  --- 19 DSR 60 [13a 4 7 800] ------- [6:255 1:255 252 1] 4 [0 2] [1 2 4 1->6] [0 0 0 0->0]
r 15.127105729 _0_ RTR  --- 21 DSR 56 [13a 0 3 800] ------- [6:255 0:255 254 0] 3 [0 2] [1 2 4 0->7] [0 0 0 0->0]
SFESTs 15.127105729 _0_ 0 [0 -> 7] 1(1) to 3 [0 |3 6 7 ]
s 15.127105729 _0_ RTR  --- 0 cbr 556 [0 0 0 0] ------- [0:0 7:0 32 3] [0] 0 0
r 15.130121220 _4_ RTR  --- 20 DSR 60 [13a 4 7 800] ------- [7:255 0:255 254 4] 4 [0 2] [1 2 4 0->7] [0 0 0 0->0]
f 15.130121220 _4_ RTR  --- 20 DSR 60 [13a 4 7 800] ------- [7:255 0:255 253 10] 4 [0 2] [1 2 4 0->7] [0 0 0 0->0]
r 15.132189496 _4_ RTR  --- 24 DSR 60 [13a 4 3 800] ------- [6:255 1:255 253 4] 4 [0 2] [1 2 4 1->6] [0 0 0 0->0]
f 15.132189496 _4_ RTR  --- 24 DSR 60 [13a 4 3 800] ------- [6:255 1:255 252 1] 4 [0 2] [1 2 4 1->6] [0 0 0 0->0]
s 15.133095863 _0_ AGT  --- 26 cbr 512 [0 0 0 0] ------- [0:0 7:0 32 0] [1] 0 0
r 15.133095863 _0_ RTR  --- 26 cbr 512 [0 0 0 0] ------- [0:0 7:0 32 0] [1] 0 0
SFESTs 15.133095863 _0_ 26 [0 -> 7] 1(1) to 3 [0 |3 6 7 ]
s 15.133095863 _0_ RTR  --- 26 cbr 556 [0 0 0 0] ------- [0:0 7:0 32 3] [1] 0 0
r 15.135207496 _1_ RTR  --- 19 DSR 60 [13a 1 4 800] ------- [6:255 1:255 252 1] 4 [0 2] [1 2 4 1->6] [0 0 0 0->0]
SFESTs 15.135207496 _1_ 2 [1 -> 6] 1(1) to 4 [1 |4 7 6 ]
SFESTs 15.135207496 _1_ 14 [1 -> 6] 1(1) to 4 [1 |4 7 6 ]
s 15.135207496 _1_ RTR  --- 2 cbr 556 [0 0 0 0] ------- [1:0 6:0 32 4] [0] 0 0
r 15.141443772 _3_ RTR  --- 0 cbr 556 [13a 3 0 800] ------- [0:0 7:0 32 3] [0] 1 0
f 15.141443772 _3_ RTR  --- 0 cbr 556 [13a 3 0 800] ------- [0:0 7:0 31 6] [0] 1 0
r 15.147338008 _10_ RTR  --- 17 cbr 552 [13a a 3 800] ------- [3:0 2:0 32 10] [1] 1 0
f 15.147338008 _10_ RTR  --- 17 cbr 552 [13a a 3 800] ------- [3:0 2:0 31 2] [1] 1 0
r 15.153334206 _4_ RTR  --- 2 cbr 556 [13a 4 1 800] ------- [1:0 6:0 32 4] [0] 1 0
f 15.153334206 _4_ RTR  --- 2 cbr 556 [13a 4 1 800] ------- [1:0 6:0 31 7] [0] 1 0
r 15.159288775 _2_ RTR  --- 17 cbr 552 [13a 2 a 800] ------- [3:0 2:0 31 2] [1] 2 0
r 15.159288775 _2_ AGT  --- 17 cbr 512 [13a 2 a 800] ------- [3:0 2:0 31 2] [1] 2 0
r 15.161611718 _1_ RTR  --- 24 DSR 60 [13a 1 4 800] ------- [6:255 1:255 252 1] 4 [0 2] [1 2 4 1->6] [0 0 0 0->0]
s 15.165207496 _1_ RTR  --- 14 cbr 556 [0 0 0 0] ------- [1:0 6:0 32 4] [1] 0 0
r 15.167587994 _3_ RTR  --- 26 cbr 556 [13a 3 0 800] ------- [0:0 7:0 32 3] [1] 1 0
f 15.167587994 _3_ RTR  --- 26 cbr 556 [13a 3 0 800] ------- [0:0 7:0 31 6] [1] 1 0
s 15.168267671 _3_ AGT  --- 27 cbr 512 [0 0 0 0] ------- [3:0 2:0 32 0] [2] 0 0
r 15.168267671 _3_ RTR  --- 27 cbr 512 [0 0 0 0] ------- [3:0 2:0 32 0] [2] 0 0
SFESTs 15.168267671 _3_ 27 [3 -> 2] 3(1) to 10 [3 |10 2 ]
s 15.168267671 _3_ RTR  --- 27 cbr 552 [0 0 0 0] ------- [3:0 2:0 32 10] [2] 0 0
r 15.173853994 _6_ RTR  --- 0 cbr 556 [13a 6 3 800] ------- [0:0 7:0 31 6] [0] 2 0
f 15.173853994 _6_ RTR  --- 0 cbr 556 [13a 6 3 800] ------- [0:0 7:0 30 7] [0] 2 0
r 15.179899994 _7_ RTR  --- 0 cbr 556 [13a 7 6 800] ------- [0:0 7:0 30 7] [0] 3 0
r 15.179899994 _7_ AGT  --- 0 cbr 512 [13a 7 6 800] ------- [0:0 7:0 30 7] [0] 3 0
r 15.182067270 _10_ RTR  --- 20 DSR 60 [13a a 4 800] ------- [7:255 0:255 253 10] 4 [0 2] [1 2 4 0->7] [0 0 0 0->0]
f 15.182067270 _10_ RTR  --- 20 DSR 60 [13a a 4 800] ------- [7:255 0:255 252 0] 4 [0 2] [1 2 4 0->7] [0 0 0 0->0]
r 15.187994016 _6_ RTR  --- 26 cbr 556 [13a 6 3 800] ------- [0:0 7:0 31 6] [1] 2 0
f 15.187994016 _6_ RTR  --- 26 cbr 556 [13a 6 3 800] ------- [0:0 7:0 30 7] [1] 2 0
s 15.191571240 _1_ AGT  --- 28 cbr 512 [0 0 0 0] ------- [1:0 6:0 32 0] [2] 0 0
r 15.191571240 _1_ RTR  --- 28 cbr 512 [0 0 0 0] ------- [1:0 6:0 32 0] [2] 0 0
SFESTs 15.191571240 _1_ 28 [1 -> 6] 1(1) to 4 [1 |4 7 6 ]
s 15.191571240 _1_ RTR  --- 28 cbr 556 [0 0 0 0] ------- [1:0 6:0 32 4] [2] 0 0
r 15.194080016 _7_ RTR  --- 26 cbr 556 [13a 7 6 800] ------- [0:0 7:0 30 7] [1] 3 0
r 15.194080016 _7_ AGT  --- 26 cbr 512 [13a 7 6 800] ------- [0:0 7:0 30 7] [1] 3 0
r 15.200316292 _7_ RTR  --- 2 cbr 556 [13a 7 4 800] ------- [1:0 6:0 31 7] [0] 2 0
f 15.200316292 _7_ RTR  --- 2 cbr 556 [13a 7 4 800] ------- [1:0 6:0 30 6] [0] 2 0
r 15.206542292 _6_ RTR  --- 2 cbr 556 [13a 6 7 800] ------- [1:0 6:0 30 6] [0] 3 0
r 15.206542292 _6_ AGT  --- 2 cbr 512 [13a 6 7 800] ------- [1:0 6:0 30 6] [0] 3 0
r 15.212786804 _10_ RTR  --- 27 cbr 552 [13a a 3 800] ------- [3:0 2:0 32 10] [2] 1 0
f 15.212786804 _10_ RTR  --- 27 cbr 552 [13a a 3 800] ------- [3:0 2:0 31 2] [2] 1 0
s 15.216947072 _0_ AGT  --- 29 cbr 512 [0 0 0 0] ------- [0:0 7:0 32 0] [2] 0 0
r 15.216947072 _0_ RTR  --- 29 cbr 512 [0 0 0 0] ------- [0:0 7:0 32 0] [2] 0 0
SFESTs 15.216947072 _0_ 29 [0 -> 7] 1(1) to 3 [0 |3 6 7 ]
s 15.216947072 _0_ RTR  --- 29 cbr 556 [0 0 0 0] ------- [0:0 7:0 32 3] [2] 0 0
r 15.219103001 _4_ RTR  --- 14 cbr 556 [13a 4 1 800] ------- [1:0 6:0 32 4] [1] 1 0
f 15.219103001 _4_ RTR  --- 14 cbr 556 [13a 4 1 800] ------- [1:0 6:0 31 7] [1] 1 0
r 15.221121571 _0_ RTR  --- 20 DSR 60 [13a 0 a 800] ------- [7:255 0:255 252 0] 4 [0 2] [1 2 4 0->7] [0 0 0 0->0]
r 15.227348237 _4_ RTR  --- 28 cbr 556 [13a 4 1 800] ------- [1:0 6:0 32 4] [2] 1 0
f 15.227348237 _4_ RTR  --- 28 cbr 556 [13a 4 1 800] ------- [1:0 6:0 31 7] [2] 1 0
r 15.233342807 _2_ RTR  --- 27 cbr 552 [13a 2 a 800] ------- [3:0 2:0 31 2] [2] 2 0
r 15.233342807 _2_ AGT  --- 27 cbr 512 [13a 2 a 800] ------- [3:0 2:0 31 2] [2] 2 0
r 15.239754140 _3_ RTR  --- 29 cbr 556 [13a 3 0 800] ------- [0:0 7:0 32 3] [2] 1 0