n -t * -s 0  -x 100 -y 100 -Z 0 -z 30  -v circle -c black
n -t * -s 1  -x 300 -y 100 -Z 0 -z 30  -v circle -c black
n -t * -s 2  -x 500 -y 100 -Z 0 -z 30  -v circle -c black
n -t * -s 3  -x 100 -y 300 -Z 0 -z 30  -v circle -c black
n -t * -s 4  -x 300 -y 300 -Z 0 -z 30  -v circle -c black
n -t * -s 5  -x 500 -y 300 -Z 0 -z 30  -v circle -c black
n -t * -s 6  -x 100 -y 500 -Z 0 -z 30  -v circle -c black
n -t * -s 7  -x 300 -y 500 -Z 0 -z 30  -v circle -c black
n -t * -s 8  -x 500 -y 500 -Z 0 -z 30  -v circle -c black
n -t * -s 9  -x 500 -y 200 -Z 0 -z 30  -v circle -c black
n -t * -s 10  -x 300 -y 200 -Z 0 -z 30  -v circle -c black
V -t * -v 1.0a5 -a 0
W -t * -x 500 -y 500
A -t * -n 1 -p 0 -o 0xffffffff -c 31 -a 1
A -t * -h 1 -m 2147483647 -s 0
+ -t 15.000000000 -s 0 -d -1 -p cbr -e 512 -c 2 -a 0 -i 0 -k AGT 
- -t 15.000000000 -s 0 -d -1 -p cbr -e 512 -c 2 -a 0 -i 0 -k AGT
h -t 15.000000000 -s 0 -d -1 -p cbr -e 512 -c 2 -a 0 -i 0 -k AGT
+ -t 15.000000000 -s 1 -d -1 -p cbr -e 512 -c 2 -a 0 -i 2 -k AGT 
- -t 15.000000000 -s 1 -d -1 -p cbr -e 512 -c 2 -a 0 -i 2 -k AGT
h -t 15.000000000 -s 1 -d -1 -p cbr -e 512 -c 2 -a 0 -i 2 -k AGT
+ -t 15.000000000 -s 3 -d -1 -p cbr -e 512 -c 2 -a 0 -i 4 -k AGT 
- -t 15.000000000 -s 3 -d -1 -p cbr -e 512 -c 2 -a 0 -i 4 -k AGT
h -t 15.000000000 -s 3 -d -1 -p cbr -e 512 -c 2 -a 0 -i 4 -k AGT
+ -t 15.001335177 -s 1 -d -1 -p DSR -e 32 -c 2 -a 0 -i 3 -k RTR 
- -t 15.001335177 -s 1 -d -1 -p DSR -e 32 -c 2 -a 0 -i 3 -k RTR
h -t 15.001335177 -s 1 -d -1 -p DSR -e 32 -c 2 -a 0 -i 3 -k RTR
+ -t 15.006049459 -s 0 -d -1 -p DSR -e 32 -c 2 -a 0 -i 1 -k RTR 
- -t 15.006049459 -s 0 -d -1 -p DSR -e 32 -c 2 -a 0 -i 1 -k RTR
h -t 15.006049459 -s 0 -d -1 -p DSR -e 32 -c 2 -a 0 -i 1 -k RTR
+ -t 15.006696190 -s 3 -d -1 -p DSR -e 32 -c 2 -a 0 -i 5 -k RTR 
- -t 15.006696190 -s 3 -d -1 -p DSR -e 32 -c 2 -a 0 -i 5 -k RTR
h -t 15.006696190 -s 3 -d -1 -p DSR -e 32 -c 2 -a 0 -i 5 -k RTR
+ -t 15.043358529 -s 3 -d -1 -p DSR -e 32 -c 2 -a 0 -i 8 -k RTR 
- -t 15.043358529 -s 3 -d -1 -p DSR -e 32 -c 2 -a 0 -i 8 -k RTR
h -t 15.043358529 -s 3 -d -1 -p DSR -e 32 -c 2 -a 0 -i 8 -k RTR
+ -t 15.046220068 -s 0 -d -1 -p DSR -e 48 -c 2 -a 0 -i 8 -k RTR 
- -t 15.046220068 -s 0 -d -1 -p DSR -e 48 -c 2 -a 0 -i 8 -k RTR
h -t 15.046220068 -s 0 -d -1 -p DSR -e 48 -c 2 -a 0 -i 8 -k RTR
+ -t 15.046965066 -s 6 -d -1 -p DSR -e 48 -c 2 -a 0 -i 8 -k RTR 
- -t 15.046965066 -s 6 -d -1 -p DSR -e 48 -c 2 -a 0 -i 8 -k RTR
h -t 15.046965066 -s 6 -d -1 -p DSR -e 48 -c 2 -a 0 -i 8 -k RTR
+ -t 15.047998228 -s 4 -d -1 -p DSR -e 48 -c 2 -a 0 -i 8 -k RTR 
- -t 15.047998228 -s 4 -d -1 -p DSR -e 48 -c 2 -a 0 -i 8 -k RTR
h -t 15.047998228 -s 4 -d -1 -p DSR -e 48 -c 2 -a 0 -i 8 -k RTR
+ -t 15.048295941 -s 1 -d -1 -p DSR -e 68 -c 2 -a 0 -i 8 -k RTR 
- -t 15.048295941 -s 1 -d -1 -p DSR -e 68 -c 2 -a 0 -i 8 -k RTR
h -t 15.048295941 -s 1 -d -1 -p DSR -e 68 -c 2 -a 0 -i 8 -k RTR
+ -t 15.049981440 -s 7 -d -1 -p DSR -e 68 -c 2 -a 0 -i 8 -k RTR 
- -t 15.049981440 -s 7 -d -1 -p DSR -e 68 -c 2 -a 0 -i 8 -k RTR
h -t 15.049981440 -s 7 -d -1 -p DSR -e 68 -c 2 -a 0 -i 8 -k RTR
+ -t 15.050466966 -s 10 -d -1 -p DSR -e 48 -c 2 -a 0 -i 8 -k RTR 
- -t 15.050466966 -s 10 -d -1 -p DSR -e 48 -c 2 -a 0 -i 8 -k RTR
h -t 15.050466966 -s 10 -d -1 -p DSR -e 48 -c 2 -a 0 -i 8 -k RTR
+ -t 15.054285551 -s 2 -d 1 -p DSR -e 60 -c 2 -a 0 -i 9 -k RTR 
- -t 15.054285551 -s 2 -d 1 -p DSR -e 60 -c 2 -a 0 -i 9 -k RTR
h -t 15.054285551 -s 2 -d 1 -p DSR -e 60 -c 2 -a 0 -i 9 -k RTR
+ -t 15.055143129 -s 9 -d -1 -p DSR -e 68 -c 2 -a 0 -i 8 -k RTR 
- -t 15.055143129 -s 9 -d -1 -p DSR -e 68 -c 2 -a 0 -i 8 -k RTR
h -t 15.055143129 -s 9 -d -1 -p DSR -e 68 -c 2 -a 0 -i 8 -k RTR
+ -t 15.055821192 -s 2 -d 10 -p DSR -e 52 -c 2 -a 0 -i 10 -k RTR 
- -t 15.055821192 -s 2 -d 10 -p DSR -e 52 -c 2 -a 0 -i 10 -k RTR
h -t 15.055821192 -s 2 -d 10 -p DSR -e 52 -c 2 -a 0 -i 10 -k RTR
+ -t 15.057411676 -s 8 -d -1 -p DSR -e 92 -c 2 -a 0 -i 8 -k RTR 
- -t 15.057411676 -s 8 -d -1 -p DSR -e 92 -c 2 -a 0 -i 8 -k RTR
h -t 15.057411676 -s 8 -d -1 -p DSR -e 92 -c 2 -a 0 -i 8 -k RTR
+ -t 15.057947463 -s 1 -d 0 -p DSR -e 60 -c 2 -a 0 -i 9 -k RTR 
- -t 15.057947463 -s 1 -d 0 -p DSR -e 60 -c 2 -a 0 -i 9 -k RTR
h -t 15.057947463 -s 1 -d 0 -p DSR -e 60 -c 2 -a 0 -i 9 -k RTR
+ -t 15.059456919 -s 5 -d -1 -p DSR -e 68 -c 2 -a 0 -i 8 -k RTR 
- -t 15.059456919 -s 5 -d -1 -p DSR -e 68 -c 2 -a 0 -i 8 -k RTR
h -t 15.059456919 -s 5 -d -1 -p DSR -e 68 -c 2 -a 0 -i 8 -k RTR
+ -t 15.059985463 -s 0 -d 3 -p DSR -e 60 -c 2 -a 0 -i 9 -k RTR 
- -t 15.059985463 -s 0 -d 3 -p DSR -e 60 -c 2 -a 0 -i 9 -k RTR
h -t 15.059985463 -s 0 -d 3 -p DSR -e 60 -c 2 -a 0 -i 9 -k RTR
+ -t 15.061903422 -s 1 -d -1 -p DSR -e 32 -c 2 -a 0 -i 11 -k RTR 
- -t 15.061903422 -s 1 -d -1 -p DSR -e 32 -c 2 -a 0 -i 11 -k RTR
h -t 15.061903422 -s 1 -d -1 -p DSR -e 32 -c 2 -a 0 -i 11 -k RTR
+ -t 15.062476768 -s 2 -d 9 -p DSR -e 60 -c 2 -a 0 -i 12 -k RTR 
- -t 15.062476768 -s 2 -d 9 -p DSR -e 60 -c 2 -a 0 -i 12 -k RTR
h -t 15.062476768 -s 2 -d 9 -p DSR -e 60 -c 2 -a 0 -i 12 -k RTR
+ -t 15.063963463 -s 3 -d 0 -p cbr -e 556 -c 2 -a 0 -i 4 -k RTR 
- -t 15.063963463 -s 3 -d 0 -p cbr -e 556 -c 2 -a 0 -i 4 -k RTR
h -t 15.063963463 -s 3 -d 0 -p cbr -e 556 -c 2 -a 0 -i 4 -k RTR
+ -t 15.067025308 -s 10 -d 3 -p DSR -e 52 -c 2 -a 0 -i 10 -k RTR 
- -t 15.067025308 -s 10 -d 3 -p DSR -e 52 -c 2 -a 0 -i 10 -k RTR
h -t 15.067025308 -s 10 -d 3 -p DSR -e 52 -c 2 -a 0 -i 10 -k RTR
+ -t 15.067447702 -s 1 -d -1 -p cbr -e 512 -c 2 -a 0 -i 14 -k AGT 
- -t 15.067447702 -s 1 -d -1 -p cbr -e 512 -c 2 -a 0 -i 14 -k AGT
h -t 15.067447702 -s 1 -d -1 -p cbr -e 512 -c 2 -a 0 -i 14 -k AGT
+ -t 15.067767344 -s 2 -d -1 -p DSR -e 48 -c 2 -a 0 -i 11 -k RTR 
- -t 15.067767344 -s 2 -d -1 -p DSR -e 48 -c 2 -a 0 -i 11 -k RTR
h -t 15.067767344 -s 2 -d -1 -p DSR -e 48 -c 2 -a 0 -i 11 -k RTR
+ -t 15.067926685 -s 10 -d -1 -p DSR -e 48 -c 2 -a 0 -i 11 -k RTR 
- -t 15.067926685 -s 10 -d -1 -p DSR -e 48 -c 2 -a 0 -i 11 -k RTR
h -t 15.067926685 -s 10 -d -1 -p DSR -e 48 -c 2 -a 0 -i 11 -k RTR
+ -t 15.068106210 -s 0 -d -1 -p DSR -e 32 -c 2 -a 0 -i 13 -k RTR 
- -t 15.068106210 -s 0 -d -1 -p DSR -e 32 -c 2 -a 0 -i 13 -k RTR
h -t 15.068106210 -s 0 -d -1 -p DSR -e 32 -c 2 -a 0 -i 13 -k RTR
+ -t 15.070627903 -s 9 -d -1 -p DSR -e 48 -c 2 -a 0 -i 11 -k RTR 
- -t 15.070627903 -s 9 -d -1 -p DSR -e 48 -c 2 -a 0 -i 11 -k RTR
h -t 15.070627903 -s 9 -d -1 -p DSR -e 48 -c 2 -a 0 -i 11 -k RTR
+ -t 15.071744603 -s 0 -d -1 -p DSR -e 48 -c 2 -a 0 -i 11 -k RTR 
- -t 15.071744603 -s 0 -d -1 -p DSR -e 48 -c 2 -a 0 -i 11 -k RTR
h -t 15.071744603 -s 0 -d -1 -p DSR -e 48 -c 2 -a 0 -i 11 -k RTR
+ -t 15.074211671 -s 4 -d -1 -p DSR -e 48 -c 2 -a 0 -i 11 -k RTR 
- -t 15.074211671 -s 4 -d -1 -p DSR -e 48 -c 2 -a 0 -i 11 -k RTR
h -t 15.074211671 -s 4 -d -1 -p DSR -e 48 -c 2 -a 0 -i 11 -k RTR
+ -t 15.074527387 -s 0 -d 1 -p cbr -e 556 -c 2 -a 0 -i 4 -k RTR 
- -t 15.074527387 -s 0 -d 1 -p cbr -e 556 -c 2 -a 0 -i 4 -k RTR
h -t 15.074527387 -s 0 -d 1 -p cbr -e 556 -c 2 -a 0 -i 4 -k RTR
+ -t 15.077518121 -s 2 -d 5 -p DSR -e 60 -c 2 -a 0 -i 16 -k RTR 
- -t 15.077518121 -s 2 -d 5 -p DSR -e 60 -c 2 -a 0 -i 16 -k RTR
h -t 15.077518121 -s 2 -d 5 -p DSR -e 60 -c 2 -a 0 -i 16 -k RTR
+ -t 15.078833721 -s 10 -d -1 -p DSR -e 48 -c 2 -a 0 -i 13 -k RTR 
- -t 15.078833721 -s 10 -d -1 -p DSR -e 48 -c 2 -a 0 -i 13 -k RTR
h -t 15.078833721 -s 10 -d -1 -p DSR -e 48 -c 2 -a 0 -i 13 -k RTR
+ -t 15.079161587 -s 7 -d -1 -p DSR -e 68 -c 2 -a 0 -i 11 -k RTR 
- -t 15.079161587 -s 7 -d -1 -p DSR -e 68 -c 2 -a 0 -i 11 -k RTR
h -t 15.079161587 -s 7 -d -1 -p DSR -e 68 -c 2 -a 0 -i 11 -k RTR
+ -t 15.082192519 -s 2 -d -1 -p DSR -e 68 -c 2 -a 0 -i 13 -k RTR 
- -t 15.082192519 -s 2 -d -1 -p DSR -e 68 -c 2 -a 0 -i 13 -k RTR
h -t 15.082192519 -s 2 -d -1 -p DSR -e 68 -c 2 -a 0 -i 13 -k RTR
+ -t 15.082526502 -s 3 -d -1 -p DSR -e 48 -c 2 -a 0 -i 13 -k RTR 
- -t 15.082526502 -s 3 -d -1 -p DSR -e 48 -c 2 -a 0 -i 13 -k RTR
h -t 15.082526502 -s 3 -d -1 -p DSR -e 48 -c 2 -a 0 -i 13 -k RTR
+ -t 15.082657103 -s 3 -d -1 -p DSR -e 68 -c 2 -a 0 -i 11 -k RTR 
- -t 15.082657103 -s 3 -d -1 -p DSR -e 68 -c 2 -a 0 -i 11 -k RTR
h -t 15.082657103 -s 3 -d -1 -p DSR -e 68 -c 2 -a 0 -i 11 -k RTR
+ -t 15.083702851 -s 9 -d -1 -p DSR -e 68 -c 2 -a 0 -i 13 -k RTR 
- -t 15.083702851 -s 9 -d -1 -p DSR -e 68 -c 2 -a 0 -i 13 -k RTR
h -t 15.083702851 -s 9 -d -1 -p DSR -e 68 -c 2 -a 0 -i 13 -k RTR
+ -t 15.084699526 -s 9 -d 4 -p DSR -e 60 -c 2 -a 0 -i 12 -k RTR 
- -t 15.084699526 -s 9 -d 4 -p DSR -e 60 -c 2 -a 0 -i 12 -k RTR
h -t 15.084699526 -s 9 -d 4 -p DSR -e 60 -c 2 -a 0 -i 12 -k RTR
+ -t 15.084873300 -s 4 -d -1 -p DSR -e 68 -c 2 -a 0 -i 13 -k RTR 
- -t 15.084873300 -s 4 -d -1 -p DSR -e 68 -c 2 -a 0 -i 13 -k RTR
h -t 15.084873300 -s 4 -d -1 -p DSR -e 68 -c 2 -a 0 -i 13 -k RTR
+ -t 15.085746292 -s 1 -d -1 -p DSR -e 48 -c 2 -a 0 -i 13 -k RTR 
- -t 15.085746292 -s 1 -d -1 -p DSR -e 48 -c 2 -a 0 -i 13 -k RTR
h -t 15.085746292 -s 1 -d -1 -p DSR -e 48 -c 2 -a 0 -i 13 -k RTR
+ -t 15.087518342 -s 5 -d -1 -p DSR -e 68 -c 2 -a 0 -i 11 -k RTR 
- -t 15.087518342 -s 5 -d -1 -p DSR -e 68 -c 2 -a 0 -i 11 -k RTR
h -t 15.087518342 -s 5 -d -1 -p DSR -e 68 -c 2 -a 0 -i 11 -k RTR
+ -t 15.088977336 -s 5 -d -1 -p DSR -e 68 -c 2 -a 0 -i 13 -k RTR 
- -t 15.088977336 -s 5 -d -1 -p DSR -e 68 -c 2 -a 0 -i 13 -k RTR
h -t 15.088977336 -s 5 -d -1 -p DSR -e 68 -c 2 -a 0 -i 13 -k RTR
+ -t 15.089038429 -s 4 -d 3 -p DSR -e 60 -c 2 -a 0 -i 12 -k RTR 
- -t 15.089038429 -s 4 -d 3 -p DSR -e 60 -c 2 -a 0 -i 12 -k RTR
h -t 15.089038429 -s 4 -d 3 -p DSR -e 60 -c 2 -a 0 -i 12 -k RTR
+ -t 15.091423781 -s 8 -d -1 -p DSR -e 92 -c 2 -a 0 -i 11 -k RTR 
- -t 15.091423781 -s 8 -d -1 -p DSR -e 92 -c 2 -a 0 -i 11 -k RTR
h -t 15.091423781 -s 8 -d -1 -p DSR -e 92 -c 2 -a 0 -i 11 -k RTR
+ -t 15.091758763 -s 8 -d -1 -p DSR -e 92 -c 2 -a 0 -i 13 -k RTR 
- -t 15.091758763 -s 8 -d -1 -p DSR -e 92 -c 2 -a 0 -i 13 -k RTR
h -t 15.091758763 -s 8 -d -1 -p DSR -e 92 -c 2 -a 0 -i 13 -k RTR
+ -t 15.092559198 -s 3 -d -1 -p cbr -e 512 -c 2 -a 0 -i 17 -k AGT 
- -t 15.092559198 -s 3 -d -1 -p cbr -e 512 -c 2 -a 0 -i 17 -k AGT
h -t 15.092559198 -s 3 -d -1 -p cbr -e 512 -c 2 -a 0 -i 17 -k AGT
+ -t 15.092559198 -s 3 -d 10 -p cbr -e 552 -c 2 -a 0 -i 17 -k RTR 
- -t 15.092559198 -s 3 -d 10 -p cbr -e 552 -c 2 -a 0 -i 17 -k RTR
h -t 15.092559198 -s 3 -d 10 -p cbr -e 552 -c 2 -a 0 -i 17 -k RTR
+ -t 15.095536570 -s 7 -d 8 -p DSR -e 68 -c 2 -a 0 -i 18 -k RTR 
- -t 15.095536570 -s 7 -d 8 -p DSR -e 68 -c 2 -a 0 -i 18 -k RTR
h -t 15.095536570 -s 7 -d 8 -p DSR -e 68 -c 2 -a 0 -i 18 -k RTR
+ -t 15.100426743 -s 6 -d 3 -p DSR -e 56 -c 2 -a 0 -i 21 -k RTR 
- -t 15.100426743 -s 6 -d 3 -p DSR -e 56 -c 2 -a 0 -i 21 -k RTR
h -t 15.100426743 -s 6 -d 3 -p DSR -e 56 -c 2 -a 0 -i 21 -k RTR
+ -t 15.103117082 -s 6 -d 7 -p DSR -e 60 -c 2 -a 0 -i 19 -k RTR 
- -t 15.103117082 -s 6 -d 7 -p DSR -e 60 -c 2 -a 0 -i 19 -k RTR
h -t 15.103117082 -s 6 -d 7 -p DSR -e 60 -c 2 -a 0 -i 19 -k RTR
+ -t 15.103208743 -s 3 -d 0 -p DSR -e 56 -c 2 -a 0 -i 21 -k RTR 
- -t 15.103208743 -s 3 -d 0 -p DSR -e 56 -c 2 -a 0 -i 21 -k RTR
h -t 15.103208743 -s 3 -d 0 -p DSR -e 56 -c 2 -a 0 -i 21 -k RTR
+ -t 15.105156273 -s 7 -d 4 -p DSR -e 60 -c 2 -a 0 -i 20 -k RTR 
- -t 15.105156273 -s 7 -d 4 -p DSR -e 60 -c 2 -a 0 -i 20 -k RTR
h -t 15.105156273 -s 7 -d 4 -p DSR -e 60 -c 2 -a 0 -i 20 -k RTR
+ -t 15.105267410 -s 7 -d 4 -p DSR -e 60 -c 2 -a 0 -i 19 -k RTR 
- -t 15.105267410 -s 7 -d 4 -p DSR -e 60 -c 2 -a 0 -i 19 -k RTR
h -t 15.105267410 -s 7 -d 4 -p DSR -e 60 -c 2 -a 0 -i 19 -k RTR
+ -t 15.110830093 -s 6 -d 3 -p DSR -e 60 -c 2 -a 0 -i 24 -k RTR 
- -t 15.110830093 -s 6 -d 3 -p DSR -e 60 -c 2 -a 0 -i 24 -k RTR
h -t 15.110830093 -s 6 -d 3 -p DSR -e 60 -c 2 -a 0 -i 24 -k RTR
+ -t 15.112629019 -s 1 -d 2 -p cbr -e 556 -c 2 -a 0 -i 4 -k RTR 
- -t 15.112629019 -s 1 -d 2 -p cbr -e 556 -c 2 -a 0 -i 4 -k RTR
h -t 15.112629019 -s 1 -d 2 -p cbr -e 556 -c 2 -a 0 -i 4 -k RTR
r -t 15.118555019 -s 2 -d 2 -p cbr -e 512 -c 2 -a 0 -i 4 -k AGT
+ -t 15.120663844 -s 3 -d 4 -p DSR -e 60 -c 2 -a 0 -i 24 -k RTR 
- -t 15.120663844 -s 3 -d 4 -p DSR -e 60 -c 2 -a 0 -i 24 -k RTR
h -t 15.120663844 -s 3 -d 4 -p DSR -e 60 -c 2 -a 0 -i 24 -k RTR
+ -t 15.123050786 -s 8 -d 5 -p DSR -e 68 -c 2 -a 0 -i 18 -k RTR 
- -t 15.123050786 -s 8 -d 5 -p DSR -e 68 -c 2 -a 0 -i 18 -k RTR
h -t 15.123050786 -s 8 -d 5 -p DSR -e 68 -c 2 -a 0 -i 18 -k RTR
+ -t 15.125029453 -s 4 -d 1 -p DSR -e 60 -c 2 -a 0 -i 19 -k RTR 
- -t 15.125029453 -s 4 -d 1 -p DSR -e 60 -c 2 -a 0 -i 19 -k RTR
h -t 15.125029453 -s 4 -d 1 -p DSR -e 60 -c 2 -a 0 -i 19 -k RTR
+ -t 15.127105729 -s 0 -d 3 -p cbr -e 556 -c 2 -a 0 -i 0 -k RTR 
- -t 15.127105729 -s 0 -d 3 -p cbr -e 556 -c 2 -a 0 -i 0 -k RTR
h -t 15.127105729 -s 0 -d 3 -p cbr -e 556 -c 2 -a 0 -i 0 -k RTR
+ -t 15.130121220 -s 4 -d 10 -p DSR -e 60 -c 2 -a 0 -i 20 -k RTR 
- -t 15.130121220 -s 4 -d 10 -p DSR -e 60 -c 2 -a 0 -i 20 -k RTR
h -t 15.130121220 -s 4 -d 10 -p DSR -e 60 -c 2 -a 0 -i 20 -k RTR
+ -t 15.132189496 -s 4 -d 1 -p DSR -e 60 -c 2 -a 0 -i 24 -k RTR 
- -t 15.132189496 -s 4 -d 1 -p DSR -e 60 -c 2 -a 0 -i 24 -k RTR
h -t 15.132189496 -s 4 -d 1 -p DSR -e 60 -c 2 -a 0 -i 24 -k RTR
+ -t 15.133095863 -s 0 -d -1 -p cbr -e 512 -c 2 -a 0 -i 26 -k AGT 
- -t 15.133095863 -s 0 -d -1 -p cbr -e 512 -c 2 -a 0 -i 26 -k AGT
h -t 15.133095863 -s 0 -d -1 -p cbr -e 512 -c 2 -a 0 -i 26 -k AGT
+ -t 15.133095863 -s 0 -d 3 -p cbr -e 556 -c 2 -a 0 -i 26 -k RTR 
- -t 15.133095863 -s 0 -d 3 -p cbr -e 556 -c 2 -a 0 -i 26 -k RTR
h -t 15.133095863 -s 0 -d 3 -p cbr -e 556 -c 2 -a 0 -i 26 -k RTR
+ -t 15.135207496 -s 1 -d 4 -p cbr -e 556 -c 2 -a 0 -i 2 -k RTR 
- -t 15.135207496 -s 1 -d 4 -p cbr -e 556 -c 2 -a 0 -i 2 -k RTR
h -t 15.135207496 -s 1 -d 4 -p cbr -e 556 -c 2 -a 0 -i 2 -k RTR
+ -t 15.141443772 -s 3 -d 6 -p cbr -e 556 -c 2 -a 0 -i 0 -k RTR 
- -t 15.141443772 -s 3 -d 6 -p cbr -e 556 -c 2 -a 0 -i 0 -k RTR
h -t 15.141443772 -s 3 -d 6 -p cbr -e 556 -c 2 -a 0 -i 0 -k RTR
+ -t 15.147338008 -s 10 -d 2 -p cbr -e 552 -c 2 -a 0 -i 17 -k RTR 
- -t 15.147338008 -s 10 -d 2 -p cbr -e 552 -c 2 -a 0 -i 17 -k RTR
h -t 15.147338008 -s 10 -d 2 -p cbr -e 552 -c 2 -a 0 -i 17 -k RTR
+ -t 15.153334206 -s 4 -d 7 -p cbr -e 556 -c 2 -a 0 -i 2 -k RTR 
- -t 15.153334206 -s 4 -d 7 -p cbr -e 556 -c 2 -a 0 -i 2 -k RTR
h -t 15.153334206 -s 4 -d 7 -p cbr -e 556 -c 2 -a 0 -i 2 -k RTR
r -t 15.159288775 -s 2 -d 2 -p cbr -e 512 -c 2 -a 0 -i 17 -k AGT
+ -t 15.165207496 -s 1 -d 4 -p cbr -e 556 -c 2 -a 0 -i 14 -k RTR 
- -t 15.165207496 -s 1 -d 4 -p cbr -e 556 -c 2 -a 0 -i 14 -k RTR
h -t 15.165207496 -s 1 -d 4 -p cbr -e 556 -c 2 -a 0 -i 14 -k RTR
+ -t 15.167587994 -s 3 -d 6 -p cbr -e 556 -c 2 -a 0 -i 26 -k RTR 
- -t 15.167587994 -s 3 -d 6 -p cbr -e 556 -c 2 -a 0 -i 26 -k RTR
h -t 15.167587994 -s 3 -d 6 -p cbr -e 556 -c 2 -a 0 -i 26 -k RTR
+ -t 15.168267671 -s 3 -d -1 -p cbr -e 512 -c 2 -a 0 -i 27 -k AGT 
- -t 15.168267671 -s 3 -d -1 -p cbr -e 512 -c 2 -a 0 -i 27 -k AGT
h -t 15.168267671 -s 3 -d -1 -p cbr -e 512 -c 2 -a 0 -i 27 -k AGT
+ -t 15.168267671 -s 3 -d 10 -p cbr -e 552 -c 2 -a 0 -i 27 -k RTR 
- -t 15.168267671 -s 3 -d 10 -p cbr -e 552 -c 2 -a 0 -i 27 -k RTR
h -t 15.168267671 -s 3 -d 10 -p cbr -e 552 -c 2 -a 0 -i 27 -k RTR
+ -t 15.173853994 -s 6 -d 7 -p cbr -e 556 -c 2 -a 0 -i 0 -k RTR 
- -t 15.173853994 -s 6 -d 7 -p cbr -e 556 -c 2 -a 0 -i 0 -k RTR
h -t 15.173853994 -s 6 -d 7 -p cbr -e 556 -c 2 -a 0 -i 0 -k RTR
r -t 15.179899994 -s 7 -d 7 -p cbr -e 512 -c 2 -a 0 -i 0 -k AGT
+ -t 15.182067270 -s 10 -d 0 -p DSR -e 60 -c 2 -a 0 -i 20 -k RTR 
- -t 15.182067270 -s 10 -d 0 -p DSR -e 60 -c 2 -a 0 -i 20 -k RTR
h -t 15.182067270 -s 10 -d 0 -p DSR -e 60 -c 2 -a 0 -i 20 -k RTR
+ -t 15.187994016 -s 6 -d 7 -p cbr -e 556 -c 2 -a 0 -i 26 -k RTR 
- -t 15.187994016 -s 6 -d 7 -p cbr -e 556 -c 2 -a 0 -i 26 -k RTR
h -t 15.187994016 -s 6 -d 7 -p cbr -e 556 -c 2 -a 0 -i 26 -k RTR
+ -t 15.191571240 -s 1 -d -1 -p cbr -e 512 -c 2 -a 0 -i 28 -k AGT 
- -t 15.191571240 -s 1 -d -1 -p cbr -e 512 -c 2 -a 0 -i 28 -k AGT
h -t 15.191571240 -s 1 -d -1 -p cbr -e 512 -c 2 -a 0 -i 28 -k AGT
+ -t 15.191571240 -s 1 -d 4 -p cbr -e 556 -c 2 -a 0 -i 28 -k RTR 
- -t 15.191571240 -s 1 -d 4 -p cbr -e 556 -c 2 -a 0 -i 28 -k RTR
h -t 15.191571240 -s 1 -d 4 -p cbr -e 556 -c 2 -a 0 -i 28 -k RTR
r -t 15.194080016 -s 7 -d 7 -p cbr -e 512 -c 2 -a 0 -i 26 -k AGT
+ -t 15.200316292 -s 7 -d 6 -p cbr -e 556 -c 2 -a 0 -i 2 -k RTR 
- -t 15.200316292 -s 7 -d 6 -p cbr -e 556 -c 2 -a 0 -i 2 -k RTR
h -t 15.200316292 -s 7 -d 6 -p cbr -e 556 -c 2 -a 0 -i 2 -k RTR
r -t 15.206542292 -s 6 -d 6 -p cbr -e 512 -c 2 -a 0 -i 2 -k AGT
+ -t 15.212786804 -s 10 -d 2 -p cbr -e 552 -c 2 -a 0 -i 27 -k RTR 
- -t 15.212786804 -s 10 -d 2 -p cbr -e 552 -c 2 -a 0 -i 27 -k RTR
h -t 15.212786804 -s 10 -d 2 -p cbr -e 552 -c 2 -a 0 -i 27 -k RTR
+ -t 15.216947072 -s 0 -d -1 -p cbr -e 512 -c 2 -a 0 -i 29 -k AGT 
- -t 15.216947072 -s 0 -d -1 -p cbr -e 512 -c 2 -a 0 -i 29 -k AGT
h -t 15.216947072 -s 0 -d -1 -p cbr -e 512 -c 2 -a 0 -i 29 -k AGT
+ -t 15.216947072 -s 0 -d 3 -p cbr -e 556 -c 2 -a 0 -i 29 -k RTR 
- -t 15.216947072 -s 0 -d 3 -p cbr -e 556 -c 2 -a 0 -i 29 -k RTR
h -t 15.216947072 -s 0 -d 3 -p cbr -e 556 -c 2 -a 0 -i 29 -k RTR
+ -t 15.219103001 -s 4 -d 7 -p cbr -e 556 -c 2 -a 0 -i 14 -k RTR 
- -t 15.219103001 -s 4 -d 7 -p cbr -e 556 -c 2 -a 0 -i 14 -k RTR
h -t 15.219103001 -s 4 -d 7 -p cbr -e 556 -c 2 -a 0 -i 14 -k RTR
+ -t 15.227348237 -s 4 -d 7 -p cbr -e 556 -c 2 -a 0 -i 28 -k RTR 
- -t 15.227348237 -s 4 -d 7 -p cbr -e 556 -c 2 -a 0 -i 28 -k RTR
h -t 15.227348237 -s 4 -d 7 -p cbr -e 556 -c 2 -a 0 -i 28 -k RTR
r -t 15.233342807 -s 2 -d 2 -p cbr -e 512 -c 2 -a 0 -i 27 -k AGT
+ -t 15.239754140 -s 3 -d 6 -p cbr -e 556 -c 2 -a 0 -i 29 -k RTR 
- -t 15.239754140 -s 3 -d 6 -p cbr -e 556 -c 2 -a 0 -i 29 -k RTR
h -t 15.239754140 -s 3 -d 6 -p cbr -e 556 -c 2 -a 0 -i 29 -k RTR
+ -t 15.245850416 -s 7 -d 6 -p cbr -e 556 -c 2 -a 0 -i 14 -k RTR 
- -t 15.245850416 -s 7 -d 6 -p cbr -e 556 -c 2 -a 0 -i 14 -k RTR
h -t 15.245850416 -s 7 -d 6 -p cbr -e 556 -c 2 -a 0 -i 14 -k RTR
+ -t 15.249435722 -s 3 -d -1 -p cbr -e 512 -c 2 -a 0 -i 30 -k AGT 
- -t 15.249435722 -s 3 -d -1 -p cbr -e 512 -c 2 -a 0 -i 30 -k AGT
h -t 15.249435722 -s 3 -d -1 -p cbr -e 512 -c 2 -a 0 -i 30 -k AGT
+ -t 15.249435722 -s 3 -d 10 -p cbr -e 552 -c 2 -a 0 -i 30 -k RTR 
- -t 15.249435722 -s 3 -d 10 -p cbr -e 552 -c 2 -a 0 -i 30 -k RTR
h -t 15.249435722 -s 3 -d 10 -p cbr -e 552 -c 2 -a 0 -i 30 -k RTR
+ -t 15.251937083 -s 7 -d 6 -p cbr -e 556 -c 2 -a 0 -i 28 -k RTR 
- -t 15.251937083 -s 7 -d 6 -p cbr -e 556 -c 2 -a 0 -i 28 -k RTR
h -t 15.251937083 -s 7 -d 6 -p cbr -e 556 -c 2 -a 0 -i 28 -k RTR
r -t 15.258103083 -s 6 -d 6 -p cbr -e 512 -c 2 -a 0 -i 14 -k AGT
+ -t 15.264099359 -s 6 -d 7 -p cbr -e 556 -c 2 -a 0 -i 29 -k RTR 
- -t 15.264099359 -s 6 -d 7 -p cbr -e 556 -c 2 -a 0 -i 29 -k RTR
h -t 15.264099359 -s 6 -d 7 -p cbr -e 556 -c 2 -a 0 -i 29 -k RTR
r -t 15.270065359 -s 7 -d 7 -p cbr -e 512 -c 2 -a 0 -i 29 -k AGT
r -t 15.276011359 -s 6 -d 6 -p cbr -e 512 -c 2 -a 0 -i 28 -k AGT
+ -t 15.282055871 -s 10 -d 2 -p cbr -e 552 -c 2 -a 0 -i 30 -k RTR 
- -t 15.282055871 -s 10 -d 2 -p cbr -e 552 -c 2 -a 0 -i 30 -k RTR
h -t 15.282055871 -s 10 -d 2 -p cbr -e 552 -c 2 -a 0 -i 30 -k RTR
r -t 15.288110107 -s 2 -d 2 -p cbr -e 512 -c 2 -a 0 -i 30 -k AGT
+ -t 15.292003331 -s 1 -d -1 -p cbr -e 512 -c 2 -a 0 -i 31 -k AGT 
- -t 15.292003331 -s 1 -d -1 -p cbr -e 512 -c 2 -a 0 -i 31 -k AGT
h -t 15.292003331 -s 1 -d -1 -p cbr -e 512 -c 2 -a 0 -i 31 -k AGT
+ -t 15.292003331 -s 1 -d 4 -p cbr -e 532 -c 2 -a 0 -i 31 -k RTR 
- -t 15.292003331 -s 1 -d 4 -p cbr -e 532 -c 2 -a 0 -i 31 -k RTR
h -t 15.292003331 -s 1 -d 4 -p cbr -e 532 -c 2 -a 0 -i 31 -k RTR
+ -t 15.297593331 -s 4 -d 7 -p cbr -e 532 -c 2 -a 0 -i 31 -k RTR 
- -t 15.297593331 -s 4 -d 7 -p cbr -e 532 -c 2 -a 0 -i 31 -k RTR
h -t 15.297593331 -s 4 -d 7 -p cbr -e 532 -c 2 -a 0 -i 31 -k RTR
+ -t 15.303687331 -s 7 -d 6 -p cbr -e 532 -c 2 -a 0 -i 31 -k RTR 
- -t 15.303687331 -s 7 -d 6 -p cbr -e 532 -c 2 -a 0 -i 31 -k RTR
h -t 15.303687331 -s 7 -d 6 -p cbr -e 532 -c 2 -a 0 -i 31 -k RTR
+ -t 15.309434695 -s 0 -d -1 -p cbr -e 512 -c 2 -a 0 -i 32 -k AGT 
- -t 15.309434695 -s 0 -d -1 -p cbr -e 512 -c 2 -a 0 -i 32 -k AGT
h -t 15.309434695 -s 0 -d -1 -p cbr -e 512 -c 2 -a 0 -i 32 -k AGT
+ -t 15.309434695 -s 0 -d 3 -p cbr -e 532 -c 2 -a 0 -i 32 -k RTR 
- -t 15.309434695 -s 0 -d 3 -p cbr -e 532 -c 2 -a 0 -i 32 -k RTR
h -t 15.309434695 -s 0 -d 3 -p cbr -e 532 -c 2 -a 0 -i 32 -k RTR
r -t 15.309581331 -s 6 -d 6 -p cbr -e 512 -c 2 -a 0 -i 31 -k AGT
+ -t 15.316000664 -s 3 -d 6 -p cbr -e 532 -c 2 -a 0 -i 32 -k RTR 
- -t 15.316000664 -s 3 -d 6 -p cbr -e 532 -c 2 -a 0 -i 32 -k RTR
h -t 15.316000664 -s 3 -d 6 -p cbr -e 532 -c 2 -a 0 -i 32 -k RTR
+ -t 15.321954664 -s 6 -d 7 -p cbr -e 532 -c 2 -a 0 -i 32 -k RTR 
- -t 15.321954664 -s 6 -d 7 -p cbr -e 532 -c 2 -a 0 -i 32 -k RTR
h -t 15.321954664 -s 6 -d 7 -p cbr -e 532 -c 2 -a 0 -i 32 -k RTR
r -t 15.328048664 -s 7 -d 7 -p cbr -e 512 -c 2 -a 0 -i 32 -k AGT
+ -t 15.334092155 -s 5 -d 4 -p DSR -e 60 -c 2 -a 0 -i 16 -k RTR 
- -t 15.334092155 -s 5 -d 4 -p DSR -e 60 -c 2 -a 0 -i 16 -k RTR
h -t 15.334092155 -s 5 -d 4 -p DSR -e 60 -c 2 -a 0 -i 16 -k RTR
+ -t 15.336130155 -s 4 -d 3 -p DSR -e 60 -c 2 -a 0 -i 16 -k RTR 
- -t 15.336130155 -s 4 -d 3 -p DSR -e 60 -c 2 -a 0 -i 16 -k RTR
h -t 15.336130155 -s 4 -d 3 -p DSR -e 60 -c 2 -a 0 -i 16 -k RTR
+ -t 15.339296545 -s 3 -d -1 -p cbr -e 512 -c 2 -a 0 -i 33 -k AGT 
- -t 15.339296545 -s 3 -d -1 -p cbr -e 512 -c 2 -a 0 -i 33 -k AGT
h -t 15.339296545 -s 3 -d -1 -p cbr -e 512 -c 2 -a 0 -i 33 -k AGT
+ -t 15.339296545 -s 3 -d 10 -p cbr -e 532 -c 2 -a 0 -i 33 -k RTR 
- -t 15.339296545 -s 3 -d 10 -p cbr -e 532 -c 2 -a 0 -i 33 -k RTR
h -t 15.339296545 -s 3 -d 10 -p cbr -e 532 -c 2 -a 0 -i 33 -k RTR
+ -t 15.346163372 -s 10 -d 2 -p cbr -e 532 -c 2 -a 0 -i 33 -k RTR 
- -t 15.346163372 -s 10 -d 2 -p cbr -e 532 -c 2 -a 0 -i 33 -k RTR
h -t 15.346163372 -s 10 -d 2 -p cbr -e 532 -c 2 -a 0 -i 33 -k RTR
r -t 15.352237608 -s 2 -d 2 -p cbr -e 512 -c 2 -a 0 -i 33 -k AGT
+ -t 15.360284942 -s 5 -d 10 -p DSR -e 68 -c 2 -a 0 -i 18 -k RTR 
- -t 15.360284942 -s 5 -d 10 -p DSR -e 68 -c 2 -a 0 -i 18 -k RTR
h -t 15.360284942 -s 5 -d 10 -p DSR -e 68 -c 2 -a 0 -i 18 -k RTR
+ -t 15.362367178 -s 10 -d 0 -p DSR -e 68 -c 2 -a 0 -i 18 -k RTR 
- -t 15.362367178 -s 10 -d 0 -p DSR -e 68 -c 2 -a 0 -i 18 -k RTR
h -t 15.362367178 -s 10 -d 0 -p DSR -e 68 -c 2 -a 0 -i 18 -k RTR
+ -t 15.409749088 -s 1 -d -1 -p cbr -e 512 -c 2 -a 0 -i 34 -k AGT 
- -t 15.409749088 -s 1 -d -1 -p cbr -e 512 -c 2 -a 0 -i 34 -k AGT
h -t 15.409749088 -s 1 -d -1 -p cbr -e 512 -c 2 -a 0 -i 34 -k AGT
+ -t 15.409749088 -s 1 -d 4 -p cbr -e 532 -c 2 -a 0 -i 34 -k RTR 
- -t 15.409749088 -s 1 -d 4 -p cbr -e 532 -c 2 -a 0 -i 34 -k RTR
h -t 15.409749088 -s 1 -d 4 -p cbr -e 532 -c 2 -a 0 -i 34 -k RTR
+ -t 15.415759088 -s 4 -d 7 -p cbr -e 532 -c 2 -a 0 -i 34 -k RTR 
- -t 15.415759088 -s 4 -d 7 -p cbr -e 532 -c 2 -a 0 -i 34 -k RTR
h -t 15.415759088 -s 4 -d 7 -p cbr -e 532 -c 2 -a 0 -i 34 -k RTR
+ -t 15.421573088 -s 7 -d 6 -p cbr -e 532 -c 2 -a 0 -i 34 -k RTR 
- -t 15.421573088 -s 7 -d 6 -p cbr -e 532 -c 2 -a 0 -i 34 -k RTR
h -t 15.421573088 -s 7 -d 6 -p cbr -e 532 -c 2 -a 0 -i 34 -k RTR
r -t 15.427727088 -s 6 -d 6 -p cbr -e 512 -c 2 -a 0 -i 34 -k AGT
+ -t 15.434348128 -s 3 -d -1 -p cbr -e 512 -c 2 -a 0 -i 35 -k AGT 
- -t 15.434348128 -s 3 -d -1 -p cbr -e 512 -c 2 -a 0 -i 35 -k AGT
h -t 15.434348128 -s 3 -d -1 -p cbr -e 512 -c 2 -a 0 -i 35 -k AGT
+ -t 15.434348128 -s 3 -d 10 -p cbr -e 532 -c 2 -a 0 -i 35 -k RTR 
- -t 15.434348128 -s 3 -d 10 -p cbr -e 532 -c 2 -a 0 -i 35 -k RTR
h -t 15.434348128 -s 3 -d 10 -p cbr -e 532 -c 2 -a 0 -i 35 -k RTR
+ -t 15.435723707 -s 0 -d -1 -p cbr -e 512 -c 2 -a 0 -i 36 -k AGT 
- -t 15.435723707 -s 0 -d -1 -p cbr -e 512 -c 2 -a 0 -i 36 -k AGT
h -t 15.435723707 -s 0 -d -1 -p cbr -e 512 -c 2 -a 0 -i 36 -k AGT
+ -t 15.435723707 -s 0 -d 3 -p cbr -e 532 -c 2 -a 0 -i 36 -k RTR 
- -t 15.435723707 -s 0 -d 3 -p cbr -e 532 -c 2 -a 0 -i 36 -k RTR
h -t 15.435723707 -s 0 -d 3 -p cbr -e 532 -c 2 -a 0 -i 36 -k RTR
+ -t 15.440258364 -s 10 -d 2 -p cbr -e 532 -c 2 -a 0 -i 35 -k RTR 
- -t 15.440258364 -s 10 -d 2 -p cbr -e 532 -c 2 -a 0 -i 35 -k RTR
h -t 15.440258364 -s 10 -d 2 -p cbr -e 532 -c 2 -a 0 -i 35 -k RTR
+ -t 15.446293109 -s 3 -d 6 -p cbr -e 532 -c 2 -a 0 -i 36 -k RTR 
- -t 15.446293109 -s 3 -d 6 -p cbr -e 532 -c 2 -a 0 -i 36 -k RTR
h -t 15.446293109 -s 3 -d 6 -p cbr -e 532 -c 2 -a 0 -i 36 -k RTR
r -t 15.452068091 -s 2 -d 2 -p cbr -e 512 -c 2 -a 0 -i 35 -k AGT
+ -t 15.458567581 -s 6 -d 7 -p cbr -e 532 -c 2 -a 0 -i 36 -k RTR 
- -t 15.458567581 -s 6 -d 7 -p cbr -e 532 -c 2 -a 0 -i 36 -k RTR
h -t 15.458567581 -s 6 -d 7 -p cbr -e 532 -c 2 -a 0 -i 36 -k RTR
r -t 15.464361581 -s 7 -d 7 -p cbr -e 512 -c 2 -a 0 -i 36 -k AGT
+ -t 15.483799288 -s 1 -d -1 -p cbr -e 512 -c 2 -a 0 -i 37 -k AGT 
- -t 15.483799288 -s 1 -d -1 -p cbr -e 512 -c 2 -a 0 -i 37 -k AGT
h -t 15.483799288 -s 1 -d -1 -p cbr -e 512 -c 2 -a 0 -i 37 -k AGT
+ -t 15.483799288 -s 1 -d 4 -p cbr -e 532 -c 2 -a 0 -i 37 -k RTR 
- -t 15.483799288 -s 1 -d 4 -p cbr -e 532 -c 2 -a 0 -i 37 -k RTR
h -t 15.483799288 -s 1 -d 4 -p cbr -e 532 -c 2 -a 0 -i 37 -k RTR
+ -t 15.489729288 -s 4 -d 7 -p cbr -e 532 -c 2 -a 0 -i 37 -k RTR 
- -t 15.489729288 -s 4 -d 7 -p cbr -e 532 -c 2 -a 0 -i 37 -k RTR
h -t 15.489729288 -s 4 -d 7 -p cbr -e 532 -c 2 -a 0 -i 37 -k RTR
+ -t 15.495763288 -s 7 -d 6 -p cbr -e 532 -c 2 -a 0 -i 37 -k RTR 
- -t 15.495763288 -s 7 -d 6 -p cbr -e 532 -c 2 -a 0 -i 37 -k RTR
h -t 15.495763288 -s 7 -d 6 -p cbr -e 532 -c 2 -a 0 -i 37 -k RTR
r -t 15.501937288 -s 6 -d 6 -p cbr -e 512 -c 2 -a 0 -i 37 -k AGT
+ -t 15.540534763 -s 0 -d -1 -p cbr -e 512 -c 2 -a 0 -i 38 -k AGT 
- -t 15.540534763 -s 0 -d -1 -p cbr -e 512 -c 2 -a 0 -i 38 -k AGT
h -t 15.540534763 -s 0 -d -1 -p cbr -e 512 -c 2 -a 0 -i 38 -k AGT
+ -t 15.540534763 -s 0 -d 3 -p cbr -e 532 -c 2 -a 0 -i 38 -k RTR 
- -t 15.540534763 -s 0 -d 3 -p cbr -e 532 -c 2 -a 0 -i 38 -k RTR
h -t 15.540534763 -s 0 -d 3 -p cbr -e 532 -c 2 -a 0 -i 38 -k RTR
+ -t 15.546004763 -s 3 -d 6 -p cbr -e 532 -c 2 -a 0 -i 38 -k RTR 
- -t 15.546004763 -s 3 -d 6 -p cbr -e 532 -c 2 -a 0 -i 38 -k RTR
h -t 15.546004763 -s 3 -d 6 -p cbr -e 532 -c 2 -a 0 -i 38 -k RTR
+ -t 15.552078763 -s 6 -d 7 -p cbr -e 532 -c 2 -a 0 -i 38 -k RTR 
- -t 15.552078763 -s 6 -d 7 -p cbr -e 532 -c 2 -a 0 -i 38 -k RTR
h -t 15.552078763 -s 6 -d 7 -p cbr -e 532 -c 2 -a 0 -i 38 -k RTR
r -t 15.558232763 -s 7 -d 7 -p cbr -e 512 -c 2 -a 0 -i 38 -k AGT
+ -t 15.562440795 -s 1 -d -1 -p cbr -e 512 -c 2 -a 0 -i 39 -k AGT 
- -t 15.562440795 -s 1 -d -1 -p cbr -e 512 -c 2 -a 0 -i 39 -k AGT
h -t 15.562440795 -s 1 -d -1 -p cbr -e 512 -c 2 -a 0 -i 39 -k AGT
+ -t 15.562440795 -s 1 -d 4 -p cbr -e 532 -c 2 -a 0 -i 39 -k RTR 
- -t 15.562440795 -s 1 -d 4 -p cbr -e 532 -c 2 -a 0 -i 39 -k RTR
h -t 15.562440795 -s 1 -d 4 -p cbr -e 532 -c 2 -a 0 -i 39 -k RTR
+ -t 15.567950795 -s 4 -d 7 -p cbr -e 532 -c 2 -a 0 -i 39 -k RTR 
- -t 15.567950795 -s 4 -d 7 -p cbr -e 532 -c 2 -a 0 -i 39 -k RTR
h -t 15.567950795 -s 4 -d 7 -p cbr -e 532 -c 2 -a 0 -i 39 -k RTR
+ -t 15.570370260 -s 3 -d -1 -p cbr -e 512 -c 2 -a 0 -i 40 -k AGT 
- -t 15.570370260 -s 3 -d -1 -p cbr -e 512 -c 2 -a 0 -i 40 -k AGT
h -t 15.570370260 -s 3 -d -1 -p cbr -e 512 -c 2 -a 0 -i 40 -k AGT
+ -t 15.570370260 -s 3 -d 10 -p cbr -e 532 -c 2 -a 0 -i 40 -k RTR 
- -t 15.570370260 -s 3 -d 10 -p cbr -e 532 -c 2 -a 0 -i 40 -k RTR
h -t 15.570370260 -s 3 -d 10 -p cbr -e 532 -c 2 -a 0 -i 40 -k RTR
+ -t 15.573684795 -s 7 -d 6 -p cbr -e 532 -c 2 -a 0 -i 39 -k RTR 
- -t 15.573684795 -s 7 -d 6 -p cbr -e 532 -c 2 -a 0 -i 39 -k RTR
h -t 15.573684795 -s 7 -d 6 -p cbr -e 532 -c 2 -a 0 -i 39 -k RTR
r -t 15.579838795 -s 6 -d 6 -p cbr -e 512 -c 2 -a 0 -i 39 -k AGT
+ -t 15.585663307 -s 10 -d 2 -p cbr -e 532 -c 2 -a 0 -i 40 -k RTR 
- -t 15.585663307 -s 10 -d 2 -p cbr -e 532 -c 2 -a 0 -i 40 -k RTR
h -t 15.585663307 -s 10 -d 2 -p cbr -e 532 -c 2 -a 0 -i 40 -k RTR
r -t 15.591457543 -s 2 -d 2 -p cbr -e 512 -c 2 -a 0 -i 40 -k AGT
+ -t 15.614821781 -s 1 -d -1 -p cbr -e 512 -c 2 -a 0 -i 41 -k AGT 
- -t 15.614821781 -s 1 -d -1 -p cbr -e 512 -c 2 -a 0 -i 41 -k AGT
h -t 15.614821781 -s 1 -d -1 -p cbr -e 512 -c 2 -a 0 -i 41 -k AGT
+ -t 15.614821781 -s 1 -d 4 -p cbr -e 532 -c 2 -a 0 -i 41 -k RTR 
- -t 15.614821781 -s 1 -d 4 -p cbr -e 532 -c 2 -a 0 -i 41 -k RTR
h -t 15.614821781 -s 1 -d 4 -p cbr -e 532 -c 2 -a 0 -i 41 -k RTR
+ -t 15.620831781 -s 4 -d 7 -p cbr -e 532 -c 2 -a 0 -i 41 -k RTR 
- -t 15.620831781 -s 4 -d 7 -p cbr -e 532 -c 2 -a 0 -i 41 -k RTR
h -t 15.620831781 -s 4 -d 7 -p cbr -e 532 -c 2 -a 0 -i 41 -k RTR
+ -t 15.626625781 -s 7 -d 6 -p cbr -e 532 -c 2 -a 0 -i 41 -k RTR 
- -t 15.626625781 -s 7 -d 6 -p cbr -e 532 -c 2 -a 0 -i 41 -k RTR
h -t 15.626625781 -s 7 -d 6 -p cbr -e 532 -c 2 -a 0 -i 41 -k RTR
r -t 15.632419781 -s 6 -d 6 -p cbr -e 512 -c 2 -a 0 -i 41 -k AGT
+ -t 15.668863064 -s 0 -d -1 -p cbr -e 512 -c 2 -a 0 -i 42 -k AGT 
- -t 15.668863064 -s 0 -d -1 -p cbr -e 512 -c 2 -a 0 -i 42 -k AGT
h -t 15.668863064 -s 0 -d -1 -p cbr -e 512 -c 2 -a 0 -i 42 -k AGT
+ -t 15.668863064 -s 0 -d 3 -p cbr -e 532 -c 2 -a 0 -i 42 -k RTR 
- -t 15.668863064 -s 0 -d 3 -p cbr -e 532 -c 2 -a 0 -i 42 -k RTR
h -t 15.668863064 -s 0 -d 3 -p cbr -e 532 -c 2 -a 0 -i 42 -k RTR
+ -t 15.674313064 -s 3 -d 6 -p cbr -e 532 -c 2 -a 0 -i 42 -k RTR 
- -t 15.674313064 -s 3 -d 6 -p cbr -e 532 -c 2 -a 0 -i 42 -k RTR
h -t 15.674313064 -s 3 -d 6 -p cbr -e 532 -c 2 -a 0 -i 42 -k RTR
+ -t 15.680427064 -s 6 -d 7 -p cbr -e 532 -c 2 -a 0 -i 42 -k RTR 
- -t 15.680427064 -s 6 -d 7 -p cbr -e 532 -c 2 -a 0 -i 42 -k RTR
h -t 15.680427064 -s 6 -d 7 -p cbr -e 532 -c 2 -a 0 -i 42 -k RTR
+ -t 15.681214494 -s 3 -d -1 -p cbr -e 512 -c 2 -a 0 -i 43 -k AGT 
- -t 15.681214494 -s 3 -d -1 -p cbr -e 512 -c 2 -a 0 -i 43 -k AGT
h -t 15.681214494 -s 3 -d -1 -p cbr -e 512 -c 2 -a 0 -i 43 -k AGT
+ -t 15.681214494 -s 3 -d 10 -p cbr -e 532 -c 2 -a 0 -i 43 -k RTR 
- -t 15.681214494 -s 3 -d 10 -p cbr -e 532 -c 2 -a 0 -i 43 -k RTR
h -t 15.681214494 -s 3 -d 10 -p cbr -e 532 -c 2 -a 0 -i 43 -k RTR
r -t 15.686221064 -s 7 -d 7 -p cbr -e 512 -c 2 -a 0 -i 42 -k AGT