n -t * -s 0  -x 100 -y 100 -Z 0 -z 30  -v circle -c black
n -t * -s 1  -x 300 -y 100 -Z 0 -z 30  -v circle -c black
n -t * -s 2  -x 500 -y 100 -Z 0 -z 30  -v circle -c black
n -t * -s 3  -x 100 -y 200 -Z 0 -z 30  -v circle -c black
n -t * -s 4  -x 300 -y 200 -Z 0 -z 30  -v circle -c black
n -t * -s 5  -x 500 -y 200 -Z 0 -z 30  -v circle -c black
n -t * -s 6  -x 100 -y 300 -Z 0 -z 30  -v circle -c black
n -t * -s 7  -x 300 -y 300 -Z 0 -z 30  -v circle -c black
n -t * -s 8  -x 500 -y 300 -Z 0 -z 30  -v circle -c black
n -t * -s 9  -x 100 -y 400 -Z 0 -z 30  -v circle -c black
n -t * -s 10  -x 300 -y 400 -Z 0 -z 30  -v circle -c black
n -t * -s 11  -x 500 -y 400 -Z 0 -z 30  -v circle -c black
n -t * -s 12  -x 100 -y 500 -Z 0 -z 30  -v circle -c black
n -t * -s 13  -x 300 -y 500 -Z 0 -z 30  -v circle -c black
n -t * -s 14  -x 500 -y 500 -Z 0 -z 30  -v circle -c black
V -t * -v 1.0a5 -a 0
W -t * -x 500 -y 500
A -t * -n 1 -p 0 -o 0xffffffff -c 31 -a 1
A -t * -h 1 -m 2147483647 -s 0
+ -t 0.000000000 -s 0 -d -1 -p WCETT -e 284 -c 2 -a 0 -i 0 -k RTR 
- -t 0.000000000 -s 0 -d -1 -p WCETT -e 284 -c 2 -a 0 -i 0 -k RTR
h -t 0.000000000 -s 0 -d -1 -p WCETT -e 284 -c 2 -a 0 -i 0 -k RTR
+ -t 0.000000000 -s 1 -d -1 -p WCETT -e 284 -c 2 -a 0 -i 0 -k RTR 
- -t 0.000000000 -s 1 -d -1 -p WCETT -e 284 -c 2 -a 0 -i 0 -k RTR
h -t 0.000000000 -s 1 -d -1 -p WCETT -e 284 -c 2 -a 0 -i 0 -k RTR
+ -t 0.000000000 -s 2 -d -1 -p WCETT -e 284 -c 2 -a 0 -i 0 -k RTR 
- -t 0.000000000 -s 2 -d -1 -p WCETT -e 284 -c 2 -a 0 -i 0 -k RTR
h -t 0.000000000 -s 2 -d -1 -p WCETT -e 284 -c 2 -a 0 -i 0 -k RTR
+ -t 0.000000000 -s 3 -d -1 -p WCETT -e 284 -c 2 -a 0 -i 0 -k RTR 
- -t 0.000000000 -s 3 -d -1 -p WCETT -e 284 -c 2 -a 0 -i 0 -k RTR
h -t 0.000000000 -s 3 -d -1 -p WCETT -e 284 -c 2 -a 0 -i 0 -k RTR
+ -t 0.000000000 -s 4 -d -1 -p WCETT -e 284 -c 2 -a 0 -i 0 -k RTR 
- -t 0.000000000 -s 4 -d -1 -p WCETT -e 284 -c 2 -a 0 -i 0 -k RTR
h -t 0.000000000 -s 4 -d -1 -p WCETT -e 284 -c 2 -a 0 -i 0 -k RTR
+ -t 0.000000000 -s 5 -d -1 -p WCETT -e 284 -c 2 -a 0 -i 0 -k RTR 
- -t 0.000000000 -s 5 -d -1 -p WCETT -e 284 -c 2 -a 0 -i 0 -k RTR
h -t 0.000000000 -s 5 -d -1 -p WCETT -e 284 -c 2 -a 0 -i 0 -k RTR
+ -t 0.000000000 -s 6 -d -1 -p WCETT -e 284 -c 2 -a 0 -i 0 -k RTR 
- -t 0.000000000 -s 6 -d -1 -p WCETT -e 284 -c 2 -a 0 -i 0 -k RTR
h -t 0.000000000 -s 6 -d -1 -p WCETT -e 284 -c 2 -a 0 -i 0 -k RTR
+ -t 0.000000000 -s 7 -d -1 -p WCETT -e 284 -c 2 -a 0 -i 0 -k RTR 
- -t 0.000000000 -s 7 -d -1 -p WCETT -e 284 -c 2 -a 0 -i 0 -k RTR
h -t 0.000000000 -s 7 -d -1 -p WCETT -e 284 -c 2 -a 0 -i 0 -k RTR
+ -t 0.000000000 -s 8 -d -1 -p WCETT -e 284 -c 2 -a 0 -i 0 -k RTR 
- -t 0.000000000 -s 8 -d -1 -p WCETT -e 284 -c 2 -a 0 -i 0 -k RTR
h -t 0.000000000 -s 8 -d -1 -p WCETT -e 284 -c 2 -a 0 -i 0 -k RTR
+ -t 0.000000000 -s 9 -d -1 -p WCETT -e 284 -c 2 -a 0 -i 0 -k RTR 
- -t 0.000000000 -s 9 -d -1 -p WCETT -e 284 -c 2 -a 0 -i 0 -k RTR
h -t 0.000000000 -s 9 -d -1 -p WCETT -e 284 -c 2 -a 0 -i 0 -k RTR
+ -t 0.000000000 -s 10 -d -1 -p WCETT -e 284 -c 2 -a 0 -i 0 -k RTR 
- -t 0.000000000 -s 10 -d -1 -p WCETT -e 284 -c 2 -a 0 -i 0 -k RTR
h -t 0.000000000 -s 10 -d -1 -p WCETT -e 284 -c 2 -a 0 -i 0 -k RTR
+ -t 0.000000000 -s 11 -d -1 -p WCETT -e 284 -c 2 -a 0 -i 0 -k RTR 
- -t 0.000000000 -s 11 -d -1 -p WCETT -e 284 -c 2 -a 0 -i 0 -k RTR
h -t 0.000000000 -s 11 -d -1 -p WCETT -e 284 -c 2 -a 0 -i 0 -k RTR
+ -t 0.000000000 -s 12 -d -1 -p WCETT -e 284 -c 2 -a 0 -i 0 -k RTR 
- -t 0.000000000 -s 12 -d -1 -p WCETT -e 284 -c 2 -a 0 -i 0 -k RTR
h -t 0.000000000 -s 12 -d -1 -p WCETT -e 284 -c 2 -a 0 -i 0 -k RTR
+ -t 0.000000000 -s 13 -d -1 -p WCETT -e 284 -c 2 -a 0 -i 0 -k RTR 
- -t 0.000000000 -s 13 -d -1 -p WCETT -e 284 -c 2 -a 0 -i 0 -k RTR
h -t 0.000000000 -s 13 -d -1 -p WCETT -e 284 -c 2 -a 0 -i 0 -k RTR
+ -t 0.000000000 -s 14 -d -1 -p WCETT -e 284 -c 2 -a 0 -i 0 -k RTR 
- -t 0.000000000 -s 14 -d -1 -p WCETT -e 284 -c 2 -a 0 -i 0 -k RTR
h -t 0.000000000 -s 14 -d -1 -p WCETT -e 284 -c 2 -a 0 -i 0 -k RTR
r -t 0.002788333 -s 2 -d -1 -p WCETT -e 284 -c 2 -a 0 -i 0 -k RTR
r -t 0.002788333 -s 8 -d -1 -p WCETT -e 284 -c 2 -a 0 -i 0 -k RTR
r -t 0.002788667 -s 4 -d -1 -p WCETT -e 284 -c 2 -a 0 -i 0 -k RTR
r -t 0.002788667 -s 11 -d -1 -p WCETT -e 284 -c 2 -a 0 -i 0 -k RTR
r -t 0.002788745 -s 7 -d -1 -p WCETT -e 284 -c 2 -a 0 -i 0 -k RTR
r -t 0.002788745 -s 1 -d -1 -p WCETT -e 284 -c 2 -a 0 -i 0 -k RTR
r -t 0.005567079 -s 4 -d -1 -p WCETT -e 284 -c 2 -a 0 -i 0 -k RTR
r -t 0.005567412 -s 0 -d -1 -p WCETT -e 284 -c 2 -a 0 -i 0 -k RTR
r -t 0.005567412 -s 7 -d -1 -p WCETT -e 284 -c 2 -a 0 -i 0 -k RTR
r -t 0.005567412 -s 2 -d -1 -p WCETT -e 284 -c 2 -a 0 -i 0 -k RTR
r -t 0.005567491 -s 3 -d -1 -p WCETT -e 284 -c 2 -a 0 -i 0 -k RTR
r -t 0.005567491 -s 5 -d -1 -p WCETT -e 284 -c 2 -a 0 -i 0 -k RTR
r -t 0.008465745 -s 4 -d -1 -p WCETT -e 284 -c 2 -a 0 -i 0 -k RTR
r -t 0.008465745 -s 10 -d -1 -p WCETT -e 284 -c 2 -a 0 -i 0 -k RTR
r -t 0.008466079 -s 1 -d -1 -p WCETT -e 284 -c 2 -a 0 -i 0 -k RTR
r -t 0.008466079 -s 6 -d -1 -p WCETT -e 284 -c 2 -a 0 -i 0 -k RTR
r -t 0.008466079 -s 13 -d -1 -p WCETT -e 284 -c 2 -a 0 -i 0 -k RTR
r -t 0.008466079 -s 8 -d -1 -p WCETT -e 284 -c 2 -a 0 -i 0 -k RTR
r -t 0.008466157 -s 9 -d -1 -p WCETT -e 284 -c 2 -a 0 -i 0 -k RTR
r -t 0.008466157 -s 3 -d -1 -p WCETT -e 284 -c 2 -a 0 -i 0 -k RTR
r -t 0.008466157 -s 5 -d -1 -p WCETT -e 284 -c 2 -a 0 -i 0 -k RTR
r -t 0.008466157 -s 11 -d -1 -p WCETT -e 284 -c 2 -a 0 -i 0 -k RTR
r -t 0.011324079 -s 1 -d -1 -p WCETT -e 284 -c 2 -a 0 -i 0 -k RTR
r -t 0.011324079 -s 7 -d -1 -p WCETT -e 284 -c 2 -a 0 -i 0 -k RTR
r -t 0.011324412 -s 3 -d -1 -p WCETT -e 284 -c 2 -a 0 -i 0 -k RTR
r -t 0.011324412 -s 10 -d -1 -p WCETT -e 284 -c 2 -a 0 -i 0 -k RTR
r -t 0.011324412 -s 5 -d -1 -p WCETT -e 284 -c 2 -a 0 -i 0 -k RTR
r -t 0.011324491 -s 6 -d -1 -p WCETT -e 284 -c 2 -a 0 -i 0 -k RTR
r -t 0.011324491 -s 0 -d -1 -p WCETT -e 284 -c 2 -a 0 -i 0 -k RTR
r -t 0.011324491 -s 2 -d -1 -p WCETT -e 284 -c 2 -a 0 -i 0 -k RTR
r -t 0.011324491 -s 8 -d -1 -p WCETT -e 284 -c 2 -a 0 -i 0 -k RTR
r -t 0.014082745 -s 0 -d -1 -p WCETT -e 284 -c 2 -a 0 -i 0 -k RTR
r -t 0.014082745 -s 6 -d -1 -p WCETT -e 284 -c 2 -a 0 -i 0 -k RTR
r -t 0.014083079 -s 9 -d -1 -p WCETT -e 284 -c 2 -a 0 -i 0 -k RTR
r -t 0.014083079 -s 4 -d -1 -p WCETT -e 284 -c 2 -a 0 -i 0 -k RTR
r -t 0.014083157 -s 1 -d -1 -p WCETT -e 284 -c 2 -a 0 -i 0 -k RTR
r -t 0.014083157 -s 7 -d -1 -p WCETT -e 284 -c 2 -a 0 -i 0 -k RTR
r -t 0.016841079 -s 3 -d -1 -p WCETT -e 284 -c 2 -a 0 -i 0 -k RTR
r -t 0.016841079 -s 9 -d -1 -p WCETT -e 284 -c 2 -a 0 -i 0 -k RTR
r -t 0.016841412 -s 0 -d -1 -p WCETT -e 284 -c 2 -a 0 -i 0 -k RTR
r -t 0.016841412 -s 12 -d -1 -p WCETT -e 284 -c 2 -a 0 -i 0 -k RTR
r -t 0.016841412 -s 7 -d -1 -p WCETT -e 284 -c 2 -a 0 -i 0 -k RTR
r -t 0.016841491 -s 4 -d -1 -p WCETT -e 284 -c 2 -a 0 -i 0 -k RTR
r -t 0.016841491 -s 10 -d -1 -p WCETT -e 284 -c 2 -a 0 -i 0 -k RTR
r -t 0.019619745 -s 9 -d -1 -p WCETT -e 284 -c 2 -a 0 -i 0 -k RTR
r -t 0.019620079 -s 6 -d -1 -p WCETT -e 284 -c 2 -a 0 -i 0 -k RTR
r -t 0.019620079 -s 13 -d -1 -p WCETT -e 284 -c 2 -a 0 -i 0 -k RTR
r -t 0.023447236 -s 5 -d -1 -p WCETT -e 284 -c 2 -a 0 -i 0 -k RTR
r -t 0.023447236 -s 11 -d -1 -p WCETT -e 284 -c 2 -a 0 -i 0 -k RTR
r -t 0.023447569 -s 2 -d -1 -p WCETT -e 284 -c 2 -a 0 -i 0 -k RTR
r -t 0.023447569 -s 7 -d -1 -p WCETT -e 284 -c 2 -a 0 -i 0 -k RTR
r -t 0.023447569 -s 14 -d -1 -p WCETT -e 284 -c 2 -a 0 -i 0 -k RTR
r -t 0.023447648 -s 10 -d -1 -p WCETT -e 284 -c 2 -a 0 -i 0 -k RTR
r -t 0.023447648 -s 4 -d -1 -p WCETT -e 284 -c 2 -a 0 -i 0 -k RTR
r -t 0.026205981 -s 7 -d -1 -p WCETT -e 284 -c 2 -a 0 -i 0 -k RTR
r -t 0.026205981 -s 13 -d -1 -p WCETT -e 284 -c 2 -a 0 -i 0 -k RTR
r -t 0.026206315 -s 4 -d -1 -p WCETT -e 284 -c 2 -a 0 -i 0 -k RTR
r -t 0.026206315 -s 9 -d -1 -p WCETT -e 284 -c 2 -a 0 -i 0 -k RTR
r -t 0.026206315 -s 11 -d -1 -p WCETT -e 284 -c 2 -a 0 -i 0 -k RTR
r -t 0.026206393 -s 12 -d -1 -p WCETT -e 284 -c 2 -a 0 -i 0 -k RTR
r -t 0.026206393 -s 6 -d -1 -p WCETT -e 284 -c 2 -a 0 -i 0 -k RTR
r -t 0.026206393 -s 8 -d -1 -p WCETT -e 284 -c 2 -a 0 -i 0 -k RTR
r -t 0.026206393 -s 14 -d -1 -p WCETT -e 284 -c 2 -a 0 -i 0 -k RTR
r -t 0.028964648 -s 8 -d -1 -p WCETT -e 284 -c 2 -a 0 -i 0 -k RTR
r -t 0.028964648 -s 14 -d -1 -p WCETT -e 284 -c 2 -a 0 -i 0 -k RTR
r -t 0.028964981 -s 5 -d -1 -p WCETT -e 284 -c 2 -a 0 -i 0 -k RTR
r -t 0.028964981 -s 10 -d -1 -p WCETT -e 284 -c 2 -a 0 -i 0 -k RTR
r -t 0.028965060 -s 13 -d -1 -p WCETT -e 284 -c 2 -a 0 -i 0 -k RTR
r -t 0.028965060 -s 7 -d -1 -p WCETT -e 284 -c 2 -a 0 -i 0 -k RTR
r -t 0.031782981 -s 11 -d -1 -p WCETT -e 284 -c 2 -a 0 -i 0 -k RTR
r -t 0.031783315 -s 8 -d -1 -p WCETT -e 284 -c 2 -a 0 -i 0 -k RTR
r -t 0.031783315 -s 13 -d -1 -p WCETT -e 284 -c 2 -a 0 -i 0 -k RTR
r -t 0.035431315 -s 6 -d -1 -p WCETT -e 284 -c 2 -a 0 -i 0 -k RTR
r -t 0.035431315 -s 12 -d -1 -p WCETT -e 284 -c 2 -a 0 -i 0 -k RTR
r -t 0.035431648 -s 3 -d -1 -p WCETT -e 284 -c 2 -a 0 -i 0 -k RTR
r -t 0.035431648 -s 10 -d -1 -p WCETT -e 284 -c 2 -a 0 -i 0 -k RTR
r -t 0.035431727 -s 7 -d -1 -p WCETT -e 284 -c 2 -a 0 -i 0 -k RTR
r -t 0.035431727 -s 13 -d -1 -p WCETT -e 284 -c 2 -a 0 -i 0 -k RTR
r -t 0.038330060 -s 10 -d -1 -p WCETT -e 284 -c 2 -a 0 -i 0 -k RTR
r -t 0.038330393 -s 7 -d -1 -p WCETT -e 284 -c 2 -a 0 -i 0 -k RTR
r -t 0.038330393 -s 12 -d -1 -p WCETT -e 284 -c 2 -a 0 -i 0 -k RTR
r -t 0.038330393 -s 14 -d -1 -p WCETT -e 284 -c 2 -a 0 -i 0 -k RTR
r -t 0.038330472 -s 9 -d -1 -p WCETT -e 284 -c 2 -a 0 -i 0 -k RTR
r -t 0.038330472 -s 11 -d -1 -p WCETT -e 284 -c 2 -a 0 -i 0 -k RTR
+ -t 1.000000000 -s 0 -d -1 -p WCETT -e 284 -c 2 -a 0 -i 0 -k RTR 
- -t 1.000000000 -s 0 -d -1 -p WCETT -e 284 -c 2 -a 0 -i 0 -k RTR
h -t 1.000000000 -s 0 -d -1 -p WCETT -e 284 -c 2 -a 0 -i 0 -k RTR
+ -t 1.000000000 -s 1 -d -1 -p WCETT -e 284 -c 2 -a 0 -i 0 -k RTR 
- -t 1.000000000 -s 1 -d -1 -p WCETT -e 284 -c 2 -a 0 -i 0 -k RTR
h -t 1.000000000 -s 1 -d -1 -p WCETT -e 284 -c 2 -a 0 -i 0 -k RTR
+ -t 1.000000000 -s 2 -d -1 -p WCETT -e 284 -c 2 -a 0 -i 0 -k RTR 
- -t 1.000000000 -s 2 -d -1 -p WCETT -e 284 -c 2 -a 0 -i 0 -k RTR
h -t 1.000000000 -s 2 -d -1 -p WCETT -e 284 -c 2 -a 0 -i 0 -k RTR
+ -t 1.000000000 -s 3 -d -1 -p WCETT -e 284 -c 2 -a 0 -i 0 -k RTR 
- -t 1.000000000 -s 3 -d -1 -p WCETT -e 284 -c 2 -a 0 -i 0 -k RTR
h -t 1.000000000 -s 3 -d -1 -p WCETT -e 284 -c 2 -a 0 -i 0 -k RTR
+ -t 1.000000000 -s 4 -d -1 -p WCETT -e 284 -c 2 -a 0 -i 0 -k RTR 
- -t 1.000000000 -s 4 -d -1 -p WCETT -e 284 -c 2 -a 0 -i 0 -k RTR
h -t 1.000000000 -s 4 -d -1 -p WCETT -e 284 -c 2 -a 0 -i 0 -k RTR
+ -t 1.000000000 -s 5 -d -1 -p WCETT -e 284 -c 2 -a 0 -i 0 -k RTR 
- -t 1.000000000 -s 5 -d -1 -p WCETT -e 284 -c 2 -a 0 -i 0 -k RTR
h -t 1.000000000 -s 5 -d -1 -p WCETT -e 284 -c 2 -a 0 -i 0 -k RTR
+ -t 1.000000000 -s 6 -d -1 -p WCETT -e 284 -c 2 -a 0 -i 0 -k RTR 
- -t 1.000000000 -s 6 -d -1 -p WCETT -e 284 -c 2 -a 0 -i 0 -k RTR
h -t 1.000000000 -s 6 -d -1 -p WCETT -e 284 -c 2 -a 0 -i 0 -k RTR
+ -t 1.000000000 -s 7 -d -1 -p WCETT -e 284 -c 2 -a 0 -i 0 -k RTR 
- -t 1.000000000 -s 7 -d -1 -p WCETT -e 284 -c 2 -a 0 -i 0 -k RTR
h -t 1.000000000 -s 7 -d -1 -p WCETT -e 284 -c 2 -a 0 -i 0 -k RTR
+ -t 1.000000000 -s 8 -d -1 -p WCETT -e 284 -c 2 -a 0 -i 0 -k RTR 
- -t 1.000000000 -s 8 -d -1 -p WCETT -e 284 -c 2 -a 0 -i 0 -k RTR
h -t 1.000000000 -s 8 -d -1 -p WCETT -e 284 -c 2 -a 0 -i 0 -k RTR
+ -t 1.000000000 -s 9 -d -1 -p WCETT -e 284 -c 2 -a 0 -i 0 -k RTR 
- -t 1.000000000 -s 9 -d -1 -p WCETT -e 284 -c 2 -a 0 -i 0 -k RTR
h -t 1.000000000 -s 9 -d -1 -p WCETT -e 284 -c 2 -a 0 -i 0 -k RTR
+ -t 1.000000000 -s 10 -d -1 -p WCETT -e 284 -c 2 -a 0 -i 0 -k RTR 
- -t 1.000000000 -s 10 -d -1 -p WCETT -e 284 -c 2 -a 0 -i 0 -k RTR
h -t 1.000000000 -s 10 -d -1 -p WCETT -e 284 -c 2 -a 0 -i 0 -k RTR
+ -t 1.000000000 -s 11 -d -1 -p WCETT -e 284 -c 2 -a 0 -i 0 -k RTR 
- -t 1.000000000 -s 11 -d -1 -p WCETT -e 284 -c 2 -a 0 -i 0 -k RTR
h -t 1.000000000 -s 11 -d -1 -p WCETT -e 284 -c 2 -a 0 -i 0 -k RTR
+ -t 1.000000000 -s 12 -d -1 -p WCETT -e 284 -c 2 -a 0 -i 0 -k RTR 
- -t 1.000000000 -s 12 -d -1 -p WCETT -e 284 -c 2 -a 0 -i 0 -k RTR
h -t 1.000000000 -s 12 -d -1 -p WCETT -e 284 -c 2 -a 0 -i 0 -k RTR
+ -t 1.000000000 -s 13 -d -1 -p WCETT -e 284 -c 2 -a 0 -i 0 -k RTR 
- -t 1.000000000 -s 13 -d -1 -p WCETT -e 284 -c 2 -a 0 -i 0 -k RTR
h -t 1.000000000 -s 13 -d -1 -p WCETT -e 284 -c 2 -a 0 -i 0 -k RTR
+ -t 1.000000000 -s 14 -d -1 -p WCETT -e 284 -c 2 -a 0 -i 0 -k RTR 
- -t 1.000000000 -s 14 -d -1 -p WCETT -e 284 -c 2 -a 0 -i 0 -k RTR
h -t 1.000000000 -s 14 -d -1 -p WCETT -e 284 -c 2 -a 0 -i 0 -k RTR
r -t 1.002828333 -s 4 -d -1 -p WCETT -e 284 -c 2 -a 0 -i 0 -k RTR
r -t 1.002828667 -s 0 -d -1 -p WCETT -e 284 -c 2 -a 0 -i 0 -k RTR
r -t 1.002828667 -s 7 -d -1 -p WCETT -e 284 -c 2 -a 0 -i 0 -k RTR
r -t 1.002828667 -s 2 -d -1 -p WCETT -e 284 -c 2 -a 0 -i 0 -k RTR
r -t 1.002828745 -s 3 -d -1 -p WCETT -e 284 -c 2 -a 0 -i 0 -k RTR
r -t 1.002828745 -s 5 -d -1 -p WCETT -e 284 -c 2 -a 0 -i 0 -k RTR
r -t 1.005607079 -s 2 -d -1 -p WCETT -e 284 -c 2 -a 0 -i 0 -k RTR
r -t 1.005607079 -s 8 -d -1 -p WCETT -e 284 -c 2 -a 0 -i 0 -k RTR
r -t 1.005607412 -s 4 -d -1 -p WCETT -e 284 -c 2 -a 0 -i 0 -k RTR
r -t 1.005607412 -s 11 -d -1 -p WCETT -e 284 -c 2 -a 0 -i 0 -k RTR
r -t 1.005607491 -s 7 -d -1 -p WCETT -e 284 -c 2 -a 0 -i 0 -k RTR
r -t 1.005607491 -s 1 -d -1 -p WCETT -e 284 -c 2 -a 0 -i 0 -k RTR
r -t 1.008405412 -s 5 -d -1 -p WCETT -e 284 -c 2 -a 0 -i 0 -k RTR
r -t 1.008405412 -s 11 -d -1 -p WCETT -e 284 -c 2 -a 0 -i 0 -k RTR
r -t 1.008405745 -s 14 -d -1 -p WCETT -e 284 -c 2 -a 0 -i 0 -k RTR
r -t 1.008405745 -s 1 -d -1 -p WCETT -e 284 -c 2 -a 0 -i 0 -k RTR
r -t 1.008405824 -s 4 -d -1 -p WCETT -e 284 -c 2 -a 0 -i 0 -k RTR
r -t 1.008406079 -s 3 -d -1 -p WCETT -e 284 -c 2 -a 0 -i 0 -k RTR
r -t 1.008406157 -s 6 -d -1 -p WCETT -e 284 -c 2 -a 0 -i 0 -k RTR
r -t 1.008406157 -s 0 -d -1 -p WCETT -e 284 -c 2 -a 0 -i 0 -k RTR
r -t 1.008406157 -s 8 -d -1 -p WCETT -e 284 -c 2 -a 0 -i 0 -k RTR
r -t 1.011528745 -s 10 -d -1 -p WCETT -e 284 -c 2 -a 0 -i 0 -k RTR
r -t 1.011529079 -s 7 -d -1 -p WCETT -e 284 -c 2 -a 0 -i 0 -k RTR
r -t 1.011529079 -s 12 -d -1 -p WCETT -e 284 -c 2 -a 0 -i 0 -k RTR
r -t 1.011529079 -s 14 -d -1 -p WCETT -e 284 -c 2 -a 0 -i 0 -k RTR
r -t 1.011529157 -s 9 -d -1 -p WCETT -e 284 -c 2 -a 0 -i 0 -k RTR
r -t 1.011529157 -s 11 -d -1 -p WCETT -e 284 -c 2 -a 0 -i 0 -k RTR
r -t 1.014307412 -s 4 -d -1 -p WCETT -e 284 -c 2 -a 0 -i 0 -k RTR
r -t 1.014307412 -s 10 -d -1 -p WCETT -e 284 -c 2 -a 0 -i 0 -k RTR
r -t 1.014307745 -s 1 -d -1 -p WCETT -e 284 -c 2 -a 0 -i 0 -k RTR
r -t 1.014307745 -s 6 -d -1 -p WCETT -e 284 -c 2 -a 0 -i 0 -k RTR
r -t 1.014307745 -s 13 -d -1 -p WCETT -e 284 -c 2 -a 0 -i 0 -k RTR
r -t 1.014307745 -s 8 -d -1 -p WCETT -e 284 -c 2 -a 0 -i 0 -k RTR
r -t 1.014307824 -s 9 -d -1 -p WCETT -e 284 -c 2 -a 0 -i 0 -k RTR
r -t 1.014307824 -s 3 -d -1 -p WCETT -e 284 -c 2 -a 0 -i 0 -k RTR
r -t 1.014307824 -s 5 -d -1 -p WCETT -e 284 -c 2 -a 0 -i 0 -k RTR
r -t 1.014307824 -s 11 -d -1 -p WCETT -e 284 -c 2 -a 0 -i 0 -k RTR
r -t 1.017106157 -s 8 -d -1 -p WCETT -e 284 -c 2 -a 0 -i 0 -k RTR
r -t 1.017106157 -s 14 -d -1 -p WCETT -e 284 -c 2 -a 0 -i 0 -k RTR
r -t 1.017106491 -s 5 -d -1 -p WCETT -e 284 -c 2 -a 0 -i 0 -k RTR
r -t 1.017106491 -s 10 -d -1 -p WCETT -e 284 -c 2 -a 0 -i 0 -k RTR
r -t 1.017106569 -s 13 -d -1 -p WCETT -e 284 -c 2 -a 0 -i 0 -k RTR
r -t 1.017106569 -s 7 -d -1 -p WCETT -e 284 -c 2 -a 0 -i 0 -k RTR
r -t 1.019864491 -s 11 -d -1 -p WCETT -e 284 -c 2 -a 0 -i 0 -k RTR
r -t 1.019864824 -s 8 -d -1 -p WCETT -e 284 -c 2 -a 0 -i 0 -k RTR
r -t 1.019864824 -s 13 -d -1 -p WCETT -e 284 -c 2 -a 0 -i 0 -k RTR
r -t 1.023613026 -s 7 -d -1 -p WCETT -e 284 -c 2 -a 0 -i 0 -k RTR
r -t 1.023613026 -s 13 -d -1 -p WCETT -e 284 -c 2 -a 0 -i 0 -k RTR
r -t 1.023613359 -s 4 -d -1 -p WCETT -e 284 -c 2 -a 0 -i 0 -k RTR
r -t 1.023613359 -s 9 -d -1 -p WCETT -e 284 -c 2 -a 0 -i 0 -k RTR
r -t 1.023613359 -s 11 -d -1 -p WCETT -e 284 -c 2 -a 0 -i 0 -k RTR
r -t 1.023613438 -s 12 -d -1 -p WCETT -e 284 -c 2 -a 0 -i 0 -k RTR
r -t 1.023613438 -s 6 -d -1 -p WCETT -e 284 -c 2 -a 0 -i 0 -k RTR
r -t 1.023613438 -s 8 -d -1 -p WCETT -e 284 -c 2 -a 0 -i 0 -k RTR
r -t 1.023613438 -s 14 -d -1 -p WCETT -e 284 -c 2 -a 0 -i 0 -k RTR
r -t 1.026471771 -s 3 -d -1 -p WCETT -e 284 -c 2 -a 0 -i 0 -k RTR
r -t 1.026471771 -s 9 -d -1 -p WCETT -e 284 -c 2 -a 0 -i 0 -k RTR
r -t 1.026472105 -s 0 -d -1 -p WCETT -e 284 -c 2 -a 0 -i 0 -k RTR
r -t 1.026472105 -s 12 -d -1 -p WCETT -e 284 -c 2 -a 0 -i 0 -k RTR
r -t 1.026472105 -s 7 -d -1 -p WCETT -e 284 -c 2 -a 0 -i 0 -k RTR
r -t 1.026472183 -s 4 -d -1 -p WCETT -e 284 -c 2 -a 0 -i 0 -k RTR
r -t 1.026472183 -s 10 -d -1 -p WCETT -e 284 -c 2 -a 0 -i 0 -k RTR
r -t 1.029370105 -s 0 -d -1 -p WCETT -e 284 -c 2 -a 0 -i 0 -k RTR
r -t 1.029370105 -s 6 -d -1 -p WCETT -e 284 -c 2 -a 0 -i 0 -k RTR
r -t 1.029370438 -s 9 -d -1 -p WCETT -e 284 -c 2 -a 0 -i 0 -k RTR
r -t 1.029370438 -s 4 -d -1 -p WCETT -e 284 -c 2 -a 0 -i 0 -k RTR
r -t 1.029370517 -s 1 -d -1 -p WCETT -e 284 -c 2 -a 0 -i 0 -k RTR
r -t 1.029370517 -s 7 -d -1 -p WCETT -e 284 -c 2 -a 0 -i 0 -k RTR
r -t 1.032148771 -s 6 -d -1 -p WCETT -e 284 -c 2 -a 0 -i 0 -k RTR
r -t 1.032148771 -s 12 -d -1 -p WCETT -e 284 -c 2 -a 0 -i 0 -k RTR
r -t 1.032149105 -s 3 -d -1 -p WCETT -e 284 -c 2 -a 0 -i 0 -k RTR
r -t 1.032149105 -s 10 -d -1 -p WCETT -e 284 -c 2 -a 0 -i 0 -k RTR
r -t 1.032149183 -s 7 -d -1 -p WCETT -e 284 -c 2 -a 0 -i 0 -k RTR
r -t 1.032149183 -s 13 -d -1 -p WCETT -e 284 -c 2 -a 0 -i 0 -k RTR
r -t 1.035047105 -s 9 -d -1 -p WCETT -e 284 -c 2 -a 0 -i 0 -k RTR
r -t 1.035047438 -s 6 -d -1 -p WCETT -e 284 -c 2 -a 0 -i 0 -k RTR
r -t 1.035047438 -s 13 -d -1 -p WCETT -e 284 -c 2 -a 0 -i 0 -k RTR
+ -t 2.000000000 -s 0 -d -1 -p WCETT -e 284 -c 2 -a 0 -i 0 -k RTR 
- -t 2.000000000 -s 0 -d -1 -p WCETT -e 284 -c 2 -a 0 -i 0 -k RTR
h -t 2.000000000 -s 0 -d -1 -p WCETT -e 284 -c 2 -a 0 -i 0 -k RTR
+ -t 2.000000000 -s 1 -d -1 -p WCETT -e 284 -c 2 -a 0 -i 0 -k RTR 
- -t 2.000000000 -s 1 -d -1 -p WCETT -e 284 -c 2 -a 0 -i 0 -k RTR
h -t 2.000000000 -s 1 -d -1 -p WCETT -e 284 -c 2 -a 0 -i 0 -k RTR
+ -t 2.000000000 -s 2 -d -1 -p WCETT -e 284 -c 2 -a 0 -i 0 -k RTR 
- -t 2.000000000 -s 2 -d -1 -p WCETT -e 284 -c 2 -a 0 -i 0 -k RTR
h -t 2.000000000 -s 2 -d -1 -p WCETT -e 284 -c 2 -a 0 -i 0 -k RTR
+ -t 2.000000000 -s 3 -d -1 -p WCETT -e 284 -c 2 -a 0 -i 0 -k RTR 
- -t 2.000000000 -s 3 -d -1 -p WCETT -e 284 -c 2 -a 0 -i 0 -k RTR
h -t 2.000000000 -s 3 -d -1 -p WCETT -e 284 -c 2 -a 0 -i 0 -k RTR
+ -t 2.000000000 -s 4 -d -1 -p WCETT -e 284 -c 2 -a 0 -i 0 -k RTR 
- -t 2.000000000 -s 4 -d -1 -p WCETT -e 284 -c 2 -a 0 -i 0 -k RTR
h -t 2.000000000 -s 4 -d -1 -p WCETT -e 284 -c 2 -a 0 -i 0 -k RTR
+ -t 2.000000000 -s 5 -d -1 -p WCETT -e 284 -c 2 -a 0 -i 0 -k RTR 
- -t 2.000000000 -s 5 -d -1 -p WCETT -e 284 -c 2 -a 0 -i 0 -k RTR
h -t 2.000000000 -s 5 -d -1 -p WCETT -e 284 -c 2 -a 0 -i 0 -k RTR
+ -t 2.000000000 -s 6 -d -1 -p WCETT -e 284 -c 2 -a 0 -i 0 -k RTR 
- -t 2.000000000 -s 6 -d -1 -p WCETT -e 284 -c 2 -a 0 -i 0 -k RTR
h -t 2.000000000 -s 6 -d -1 -p WCETT -e 284 -c 2 -a 0 -i 0 -k RTR
+ -t 2.000000000 -s 7 -d -1 -p WCETT -e 284 -c 2 -a 0 -i 0 -k RTR 
- -t 2.000000000 -s 7 -d -1 -p WCETT -e 284 -c 2 -a 0 -i 0 -k RTR
h -t 2.000000000 -s 7 -d -1 -p WCETT -e 284 -c 2 -a 0 -i 0 -k RTR
+ -t 2.000000000 -s 8 -d -1 -p WCETT -e 284 -c 2 -a 0 -i 0 -k RTR 
- -t 2.000000000 -s 8 -d -1 -p WCETT -e 284 -c 2 -a 0 -i 0 -k RTR
h -t 2.000000000 -s 8 -d -1 -p WCETT -e 284 -c 2 -a 0 -i 0 -k RTR
+ -t 2.000000000 -s 9 -d -1 -p WCETT -e 284 -c 2 -a 0 -i 0 -k RTR 
- -t 2.000000000 -s 9 -d -1 -p WCETT -e 284 -c 2 -a 0 -i 0 -k RTR
h -t 2.000000000 -s 9 -d -1 -p WCETT -e 284 -c 2 -a 0 -i 0 -k RTR
+ -t 2.000000000 -s 10 -d -1 -p WCETT -e 284 -c 2 -a 0 -i 0 -k RTR 
- -t 2.000000000 -s 10 -d -1 -p WCETT -e 284 -c 2 -a 0 -i 0 -k RTR
h -t 2.000000000 -s 10 -d -1 -p WCETT -e 284 -c 2 -a 0 -i 0 -k RTR
+ -t 2.000000000 -s 11 -d -1 -p WCETT -e 284 -c 2 -a 0 -i 0 -k RTR 
- -t 2.000000000 -s 11 -d -1 -p WCETT -e 284 -c 2 -a 0 -i 0 -k RTR
h -t 2.000000000 -s 11 -d -1 -p WCETT -e 284 -c 2 -a 0 -i 0 -k RTR
+ -t 2.000000000 -s 12 -d -1 -p WCETT -e 284 -c 2 -a 0 -i 0 -k RTR 
- -t 2.000000000 -s 12 -d -1 -p WCETT -e 284 -c 2 -a 0 -i 0 -k RTR
h -t 2.000000000 -s 12 -d -1 -p WCETT -e 284 -c 2 -a 0 -i 0 -k RTR
+ -t 2.000000000 -s 13 -d -1 -p WCETT -e 284 -c 2 -a 0 -i 0 -k RTR 
- -t 2.000000000 -s 13 -d -1 -p WCETT -e 284 -c 2 -a 0 -i 0 -k RTR
h -t 2.000000000 -s 13 -d -1 -p WCETT -e 284 -c 2 -a 0 -i 0 -k RTR
+ -t 2.000000000 -s 14 -d -1 -p WCETT -e 284 -c 2 -a 0 -i 0 -k RTR 
- -t 2.000000000 -s 14 -d -1 -p WCETT -e 284 -c 2 -a 0 -i 0 -k RTR
h -t 2.000000000 -s 14 -d -1 -p WCETT -e 284 -c 2 -a 0 -i 0 -k RTR
r -t 2.002808333 -s 5 -d -1 -p WCETT -e 284 -c 2 -a 0 -i 0 -k RTR
r -t 2.002808667 -s 1 -d -1 -p WCETT -e 284 -c 2 -a 0 -i 0 -k RTR
r -t 2.002808667 -s 8 -d -1 -p WCETT -e 284 -c 2 -a 0 -i 0 -k RTR
r -t 2.005991276 -s 4 -d -1 -p WCETT -e 284 -c 2 -a 0 -i 0 -k RTR
r -t 2.005991276 -s 10 -d -1 -p WCETT -e 284 -c 2 -a 0 -i 0 -k RTR
r -t 2.005991609 -s 1 -d -1 -p WCETT -e 284 -c 2 -a 0 -i 0 -k RTR
r -t 2.005991609 -s 6 -d -1 -p WCETT -e 284 -c 2 -a 0 -i 0 -k RTR
r -t 2.005991609 -s 13 -d -1 -p WCETT -e 284 -c 2 -a 0 -i 0 -k RTR
r -t 2.005991609 -s 8 -d -1 -p WCETT -e 284 -c 2 -a 0 -i 0 -k RTR
r -t 2.005991688 -s 9 -d -1 -p WCETT -e 284 -c 2 -a 0 -i 0 -k RTR
r -t 2.005991688 -s 3 -d -1 -p WCETT -e 284 -c 2 -a 0 -i 0 -k RTR
r -t 2.005991688 -s 5 -d -1 -p WCETT -e 284 -c 2 -a 0 -i 0 -k RTR
r -t 2.005991688 -s 11 -d -1 -p WCETT -e 284 -c 2 -a 0 -i 0 -k RTR
r -t 2.008790021 -s 8 -d -1 -p WCETT -e 284 -c 2 -a 0 -i 0 -k RTR
r -t 2.008790021 -s 14 -d -1 -p WCETT -e 284 -c 2 -a 0 -i 0 -k RTR
r -t 2.008790355 -s 5 -d -1 -p WCETT -e 284 -c 2 -a 0 -i 0 -k RTR
r -t 2.008790355 -s 10 -d -1 -p WCETT -e 284 -c 2 -a 0 -i 0 -k RTR
r -t 2.008790434 -s 13 -d -1 -p WCETT -e 284 -c 2 -a 0 -i 0 -k RTR
r -t 2.008790434 -s 7 -d -1 -p WCETT -e 284 -c 2 -a 0 -i 0 -k RTR
r -t 2.011548688 -s 2 -d -1 -p WCETT -e 284 -c 2 -a 0 -i 0 -k RTR
r -t 2.011548688 -s 8 -d -1 -p WCETT -e 284 -c 2 -a 0 -i 0 -k RTR
r -t 2.011549021 -s 4 -d -1 -p WCETT -e 284 -c 2 -a 0 -i 0 -k RTR
r -t 2.011549021 -s 11 -d -1 -p WCETT -e 284 -c 2 -a 0 -i 0 -k RTR
r -t 2.011549100 -s 7 -d -1 -p WCETT -e 284 -c 2 -a 0 -i 0 -k RTR
r -t 2.011549100 -s 1 -d -1 -p WCETT -e 284 -c 2 -a 0 -i 0 -k RTR
r -t 2.014427355 -s 1 -d -1 -p WCETT -e 284 -c 2 -a 0 -i 0 -k RTR
r -t 2.014427355 -s 7 -d -1 -p WCETT -e 284 -c 2 -a 0 -i 0 -k RTR
r -t 2.014427688 -s 3 -d -1 -p WCETT -e 284 -c 2 -a 0 -i 0 -k RTR
r -t 2.014427688 -s 10 -d -1 -p WCETT -e 284 -c 2 -a 0 -i 0 -k RTR
r -t 2.014427688 -s 5 -d -1 -p WCETT -e 284 -c 2 -a 0 -i 0 -k RTR
r -t 2.014427767 -s 6 -d -1 -p WCETT -e 284 -c 2 -a 0 -i 0 -k RTR
r -t 2.014427767 -s 0 -d -1 -p WCETT -e 284 -c 2 -a 0 -i 0 -k RTR
r -t 2.014427767 -s 2 -d -1 -p WCETT -e 284 -c 2 -a 0 -i 0 -k RTR
r -t 2.014427767 -s 8 -d -1 -p WCETT -e 284 -c 2 -a 0 -i 0 -k RTR
r -t 2.017205688 -s 4 -d -1 -p WCETT -e 284 -c 2 -a 0 -i 0 -k RTR
r -t 2.017206021 -s 0 -d -1 -p WCETT -e 284 -c 2 -a 0 -i 0 -k RTR
r -t 2.017206021 -s 7 -d -1 -p WCETT -e 284 -c 2 -a 0 -i 0 -k RTR
r -t 2.017206021 -s 2 -d -1 -p WCETT -e 284 -c 2 -a 0 -i 0 -k RTR
r -t 2.017206100 -s 3 -d -1 -p WCETT -e 284 -c 2 -a 0 -i 0 -k RTR
r -t 2.017206100 -s 5 -d -1 -p WCETT -e 284 -c 2 -a 0 -i 0 -k RTR
r -t 2.020164355 -s 3 -d -1 -p WCETT -e 284 -c 2 -a 0 -i 0 -k RTR
r -t 2.020164688 -s 6 -d -1 -p WCETT -e 284 -c 2 -a 0 -i 0 -k RTR
r -t 2.020164688 -s 1 -d -1 -p WCETT -e 284 -c 2 -a 0 -i 0 -k RTR
r -t 2.023572553 -s 6 -d -1 -p WCETT -e 284 -c 2 -a 0 -i 0 -k RTR
r -t 2.023572553 -s 12 -d -1 -p WCETT -e 284 -c 2 -a 0 -i 0 -k RTR
r -t 2.023572887 -s 3 -d -1 -p WCETT -e 284 -c 2 -a 0 -i 0 -k RTR
r -t 2.023572887 -s 10 -d -1 -p WCETT -e 284 -c 2 -a 0 -i 0 -k RTR
r -t 2.023572965 -s 7 -d -1 -p WCETT -e 284 -c 2 -a 0 -i 0 -k RTR
r -t 2.023572965 -s 13 -d -1 -p WCETT -e 284 -c 2 -a 0 -i 0 -k RTR
r -t 2.026331220 -s 7 -d -1 -p WCETT -e 284 -c 2 -a 0 -i 0 -k RTR
r -t 2.026331220 -s 13 -d -1 -p WCETT -e 284 -c 2 -a 0 -i 0 -k RTR
r -t 2.026331553 -s 4 -d -1 -p WCETT -e 284 -c 2 -a 0 -i 0 -k RTR
r -t 2.026331553 -s 9 -d -1 -p WCETT -e 284 -c 2 -a 0 -i 0 -k RTR
r -t 2.026331553 -s 11 -d -1 -p WCETT -e 284 -c 2 -a 0 -i 0 -k RTR
r -t 2.026331632 -s 12 -d -1 -p WCETT -e 284 -c 2 -a 0 -i 0 -k RTR
r -t 2.026331632 -s 6 -d -1 -p WCETT -e 284 -c 2 -a 0 -i 0 -k RTR
r -t 2.026331632 -s 8 -d -1 -p WCETT -e 284 -c 2 -a 0 -i 0 -k RTR
r -t 2.026331632 -s 14 -d -1 -p WCETT -e 284 -c 2 -a 0 -i 0 -k RTR
r -t 2.029169553 -s 10 -d -1 -p WCETT -e 284 -c 2 -a 0 -i 0 -k RTR
r -t 2.029169887 -s 7 -d -1 -p WCETT -e 284 -c 2 -a 0 -i 0 -k RTR
r -t 2.029169887 -s 12 -d -1 -p WCETT -e 284 -c 2 -a 0 -i 0 -k RTR
r -t 2.029169887 -s 14 -d -1 -p WCETT -e 284 -c 2 -a 0 -i 0 -k RTR
r -t 2.029169965 -s 9 -d -1 -p WCETT -e 284 -c 2 -a 0 -i 0 -k RTR
r -t 2.029169965 -s 11 -d -1 -p WCETT -e 284 -c 2 -a 0 -i 0 -k RTR
r -t 2.032292496 -s 3 -d -1 -p WCETT -e 284 -c 2 -a 0 -i 0 -k RTR
r -t 2.032292496 -s 9 -d -1 -p WCETT -e 284 -c 2 -a 0 -i 0 -k RTR
r -t 2.032292829 -s 0 -d -1 -p WCETT -e 284 -c 2 -a 0 -i 0 -k RTR
r -t 2.032292829 -s 12 -d -1 -p WCETT -e 284 -c 2 -a 0 -i 0 -k RTR
r -t 2.032292829 -s 7 -d -1 -p WCETT -e 284 -c 2 -a 0 -i 0 -k RTR
r -t 2.032292908 -s 4 -d -1 -p WCETT -e 284 -c 2 -a 0 -i 0 -k RTR
r -t 2.032292908 -s 10 -d -1 -p WCETT -e 284 -c 2 -a 0 -i 0 -k RTR
r -t 2.035090829 -s 0 -d -1 -p WCETT -e 284 -c 2 -a 0 -i 0 -k RTR
r -t 2.035090829 -s 6 -d -1 -p WCETT -e 284 -c 2 -a 0 -i 0 -k RTR
r -t 2.035091163 -s 9 -d -1 -p WCETT -e 284 -c 2 -a 0 -i 0 -k RTR
r -t 2.035091163 -s 4 -d -1 -p WCETT -e 284 -c 2 -a 0 -i 0 -k RTR
r -t 2.035091241 -s 1 -d -1 -p WCETT -e 284 -c 2 -a 0 -i 0 -k RTR
r -t 2.035091241 -s 7 -d -1 -p WCETT -e 284 -c 2 -a 0 -i 0 -k RTR
r -t 2.038214204 -s 5 -d -1 -p WCETT -e 284 -c 2 -a 0 -i 0 -k RTR
r -t 2.038214204 -s 11 -d -1 -p WCETT -e 284 -c 2 -a 0 -i 0 -k RTR
r -t 2.038214537 -s 2 -d -1 -p WCETT -e 284 -c 2 -a 0 -i 0 -k RTR
r -t 2.038214537 -s 7 -d -1 -p WCETT -e 284 -c 2 -a 0 -i 0 -k RTR
r -t 2.038214537 -s 14 -d -1 -p WCETT -e 284 -c 2 -a 0 -i 0 -k RTR
r -t 2.038214616 -s 10 -d -1 -p WCETT -e 284 -c 2 -a 0 -i 0 -k RTR
r -t 2.038214616 -s 4 -d -1 -p WCETT -e 284 -c 2 -a 0 -i 0 -k RTR
+ -t 3.000000000 -s 0 -d -1 -p WCETT -e 284 -c 2 -a 0 -i 0 -k RTR 
- -t 3.000000000 -s 0 -d -1 -p WCETT -e 284 -c 2 -a 0 -i 0 -k RTR
h -t 3.000000000 -s 0 -d -1 -p WCETT -e 284 -c 2 -a 0 -i 0 -k RTR
+ -t 3.000000000 -s 1 -d -1 -p WCETT -e 284 -c 2 -a 0 -i 0 -k RTR 
- -t 3.000000000 -s 1 -d -1 -p WCETT -e 284 -c 2 -a 0 -i 0 -k RTR
h -t 3.000000000 -s 1 -d -1 -p WCETT -e 284 -c 2 -a 0 -i 0 -k RTR
+ -t 3.000000000 -s 2 -d -1 -p WCETT -e 284 -c 2 -a 0 -i 0 -k RTR 
- -t 3.000000000 -s 2 -d -1 -p WCETT -e 284 -c 2 -a 0 -i 0 -k RTR
h -t 3.000000000 -s 2 -d -1 -p WCETT -e 284 -c 2 -a 0 -i 0 -k RTR
+ -t 3.000000000 -s 3 -d -1 -p WCETT -e 284 -c 2 -a 0 -i 0 -k RTR 
- -t 3.000000000 -s 3 -d -1 -p WCETT -e 284 -c 2 -a 0 -i 0 -k RTR
h -t 3.000000000 -s 3 -d -1 -p WCETT -e 284 -c 2 -a 0 -i 0 -k RTR
+ -t 3.000000000 -s 4 -d -1 -p WCETT -e 284 -c 2 -a 0 -i 0 -k RTR 
- -t 3.000000000 -s 4 -d -1 -p WCETT -e 284 -c 2 -a 0 -i 0 -k RTR
h -t 3.000000000 -s 4 -d -1 -p WCETT -e 284 -c 2 -a 0 -i 0 -k RTR
+ -t 3.000000000 -s 5 -d -1 -p WCETT -e 284 -c 2 -a 0 -i 0 -k RTR 
- -t 3.000000000 -s 5 -d -1 -p WCETT -e 284 -c 2 -a 0 -i 0 -k RTR
h -t 3.000000000 -s 5 -d -1 -p WCETT -e 284 -c 2 -a 0 -i 0 -k RTR
+ -t 3.000000000 -s 6 -d -1 -p WCETT -e 284 -c 2 -a 0 -i 0 -k RTR 
- -t 3.000000000 -s 6 -d -1 -p WCETT -e 284 -c 2 -a 0 -i 0 -k RTR
h -t 3.000000000 -s 6 -d -1 -p WCETT -e 284 -c 2 -a 0 -i 0 -k RTR
+ -t 3.000000000 -s 7 -d -1 -p WCETT -e 284 -c 2 -a 0 -i 0 -k RTR 
- -t 3.000000000 -s 7 -d -1 -p WCETT -e 284 -c 2 -a 0 -i 0 -k RTR
h -t 3.000000000 -s 7 -d -1 -p WCETT -e 284 -c 2 -a 0 -i 0 -k RTR
+ -t 3.000000000 -s 8 -d -1 -p WCETT -e 284 -c 2 -a 0 -i 0 -k RTR 
- -t 3.000000000 -s 8 -d -1 -p WCETT -e 284 -c 2 -a 0 -i 0 -k RTR
h -t 3.000000000 -s 8 -d -1 -p WCETT -e 284 -c 2 -a 0 -i 0 -k RTR
+ -t 3.000000000 -s 9 -d -1 -p WCETT -e 284 -c 2 -a 0 -i 0 -k RTR 
- -t 3.000000000 -s 9 -d -1 -p WCETT -e 284 -c 2 -a 0 -i 0 -k RTR
h -t 3.000000000 -s 9 -d -1 -p WCETT -e 284 -c 2 -a 0 -i 0 -k RTR
+ -t 3.000000000 -s 10 -d -1 -p WCETT -e 284 -c 2 -a 0 -i 0 -k RTR 
- -t 3.000000000 -s 10 -d -1 -p WCETT -e 284 -c 2 -a 0 -i 0 -k RTR
h -t 3.000000000 -s 10 -d -1 -p WCETT -e 284 -c 2 -a 0 -i 0 -k RTR
+ -t 3.000000000 -s 11 -d -1 -p WCETT -e 284 -c 2 -a 0 -i 0 -k RTR 
- -t 3.000000000 -s 11 -d -1 -p WCETT -e 284 -c 2 -a 0 -i 0 -k RTR
h -t 3.000000000 -s 11 -d -1 -p WCETT -e 284 -c 2 -a 0 -i 0 -k RTR
+ -t 3.000000000 -s 12 -d -1 -p WCETT -e 284 -c 2 -a 0 -i 0 -k RTR 
- -t 3.000000000 -s 12 -d -1 -p WCETT -e 284 -c 2 -a 0 -i 0 -k RTR
h -t 3.000000000 -s 12 -d -1 -p WCETT -e 284 -c 2 -a 0 -i 0 -k RTR
+ -t 3.000000000 -s 13 -d -1 -p WCETT -e 284 -c 2 -a 0 -i 0 -k RTR 
- -t 3.000000000 -s 13 -d -1 -p WCETT -e 284 -c 2 -a 0 -i 0 -k RTR
h -t 3.000000000 -s 13 -d -1 -p WCETT -e 284 -c 2 -a 0 -i 0 -k RTR
+ -t 3.000000000 -s 14 -d -1 -p WCETT -e 284 -c 2 -a 0 -i 0 -k RTR 
- -t 3.000000000 -s 14 -d -1 -p WCETT -e 284 -c 2 -a 0 -i 0 -k RTR
h -t 3.000000000 -s 14 -d -1 -p WCETT -e 284 -c 2 -a 0 -i 0 -k RTR
r -t 3.002788333 -s 6 -d -1 -p WCETT -e 284 -c 2 -a 0 -i 0 -k RTR
r -t 3.002788333 -s 12 -d -1 -p WCETT -e 284 -c 2 -a 0 -i 0 -k RTR
r -t 3.002788667 -s 3 -d -1 -p WCETT -e 284 -c 2 -a 0 -i 0 -k RTR
r -t 3.002788667 -s 10 -d -1 -p WCETT -e 284 -c 2 -a 0 -i 0 -k RTR
r -t 3.002788745 -s 7 -d -1 -p WCETT -e 284 -c 2 -a 0 -i 0 -k RTR
r -t 3.002788745 -s 13 -d -1 -p WCETT -e 284 -c 2 -a 0 -i 0 -k RTR
r -t 3.005646667 -s 3 -d -1 -p WCETT -e 284 -c 2 -a 0 -i 0 -k RTR
r -t 3.005646667 -s 9 -d -1 -p WCETT -e 284 -c 2 -a 0 -i 0 -k RTR
r -t 3.005647000 -s 0 -d -1 -p WCETT -e 284 -c 2 -a 0 -i 0 -k RTR
r -t 3.005647000 -s 12 -d -1 -p WCETT -e 284 -c 2 -a 0 -i 0 -k RTR
r -t 3.005647000 -s 7 -d -1 -p WCETT -e 284 -c 2 -a 0 -i 0 -k RTR