Sconfig 0.00000 tap: on snoop: rts? on errs? on
Sconfig 0.00000 salvage: on !bd replies? on
Sconfig 0.00000 grat error: on grat reply: on
Sconfig 0.00000 $reply for props: on ring 0 search: on
Sconfig 0.00000 using MOBICACHE
s 15.000000000 _0_ AGT  --- 0 cbr 512 [0 0 0 0] ------- [0:0 16:0 32 0] [0] 0 0
r 15.000000000 _0_ RTR  --- 0 cbr 512 [0 0 0 0] ------- [0:0 16:0 32 0] [0] 0 0
s 15.007499249 _0_ RTR  --- 1 DSR 32 [0 0 0 0] ------- [0:255 16:255 32 0] 1 [1 1] [0 1 0 0->0] [0 0 0 0->0]
r 15.008571583 _3_ RTR  --- 1 DSR 32 [0 ffffffff 0 800] ------- [0:255 16:255 32 0] 1 [1 1] [0 1 0 0->0] [0 0 0 0->0]
r 15.008571916 _6_ RTR  --- 1 DSR 32 [0 ffffffff 0 800] ------- [0:255 16:255 32 0] 1 [1 1] [0 1 0 0->0] [0 0 0 0->0]
r 15.008571916 _1_ RTR  --- 1 DSR 32 [0 ffffffff 0 800] ------- [0:255 16:255 32 0] 1 [1 1] [0 1 0 0->0] [0 0 0 0->0]
r 15.008571995 _25_ RTR  --- 1 DSR 32 [0 ffffffff 0 800] ------- [0:255 16:255 32 0] 1 [1 1] [0 1 0 0->0] [0 0 0 0->0]
r 15.008571995 _4_ RTR  --- 1 DSR 32 [0 ffffffff 0 800] ------- [0:255 16:255 32 0] 1 [1 1] [0 1 0 0->0] [0 0 0 0->0]
s 15.064168947 _0_ RTR  --- 3 DSR 32 [0 0 0 0] ------- [0:255 16:255 32 0] 1 [1 2] [0 2 0 0->16] [0 0 0 0->0]
s 15.064984693 _0_ AGT  --- 4 cbr 512 [0 0 0 0] ------- [0:0 16:0 32 0] [1] 0 0
r 15.064984693 _0_ RTR  --- 4 cbr 512 [0 0 0 0] ------- [0:0 16:0 32 0] [1] 0 0
r 15.065241281 _3_ RTR  --- 3 DSR 32 [0 ffffffff 0 800] ------- [0:255 16:255 32 0] 1 [1 2] [0 2 0 0->16] [0 0 0 0->0]
r 15.065241614 _6_ RTR  --- 3 DSR 32 [0 ffffffff 0 800] ------- [0:255 16:255 32 0] 1 [1 2] [0 2 0 0->16] [0 0 0 0->0]
r 15.065241614 _1_ RTR  --- 3 DSR 32 [0 ffffffff 0 800] ------- [0:255 16:255 32 0] 1 [1 2] [0 2 0 0->16] [0 0 0 0->0]
r 15.065241693 _25_ RTR  --- 3 DSR 32 [0 ffffffff 0 800] ------- [0:255 16:255 32 0] 1 [1 2] [0 2 0 0->16] [0 0 0 0->0]
r 15.065241693 _4_ RTR  --- 3 DSR 32 [0 ffffffff 0 800] ------- [0:255 16:255 32 0] 1 [1 2] [0 2 0 0->16] [0 0 0 0->0]
f 15.066289343 _3_ RTR  --- 3 DSR 48 [0 ffffffff 0 800] ------- [0:255 16:255 32 0] 2 [1 2] [0 2 0 0->16] [0 0 0 0->0]
r 15.067789676 _0_ RTR  --- 3 DSR 48 [0 ffffffff 3 800] ------- [0:255 16:255 32 0] 2 [1 2] [0 2 0 0->16] [0 0 0 0->0]
r 15.067789676 _6_ RTR  --- 3 DSR 48 [0 ffffffff 3 800] ------- [0:255 16:255 32 0] 2 [1 2] [0 2 0 0->16] [0 0 0 0->0]
r 15.067789814 _25_ RTR  --- 3 DSR 48 [0 ffffffff 3 800] ------- [0:255 16:255 32 0] 2 [1 2] [0 2 0 0->16] [0 0 0 0->0]
r 15.067790009 _9_ RTR  --- 3 DSR 48 [0 ffffffff 3 800] ------- [0:255 16:255 32 0] 2 [1 2] [0 2 0 0->16] [0 0 0 0->0]
r 15.067790009 _4_ RTR  --- 3 DSR 48 [0 ffffffff 3 800] ------- [0:255 16:255 32 0] 2 [1 2] [0 2 0 0->16] [0 0 0 0->0]
r 15.067790088 _23_ RTR  --- 3 DSR 48 [0 ffffffff 3 800] ------- [0:255 16:255 32 0] 2 [1 2] [0 2 0 0->16] [0 0 0 0->0]
r 15.067790088 _1_ RTR  --- 3 DSR 48 [0 ffffffff 3 800] ------- [0:255 16:255 32 0] 2 [1 2] [0 2 0 0->16] [0 0 0 0->0]
r 15.067790088 _7_ RTR  --- 3 DSR 48 [0 ffffffff 3 800] ------- [0:255 16:255 32 0] 2 [1 2] [0 2 0 0->16] [0 0 0 0->0]
f 15.068130730 _4_ RTR  --- 3 DSR 48 [0 ffffffff 0 800] ------- [0:255 16:255 32 0] 2 [1 2] [0 2 0 0->16] [0 0 0 0->0]
r 15.069571064 _1_ RTR  --- 3 DSR 48 [0 ffffffff 4 800] ------- [0:255 16:255 32 0] 2 [1 2] [0 2 0 0->16] [0 0 0 0->0]
r 15.069571064 _7_ RTR  --- 3 DSR 48 [0 ffffffff 4 800] ------- [0:255 16:255 32 0] 2 [1 2] [0 2 0 0->16] [0 0 0 0->0]
r 15.069571064 _26_ RTR  --- 3 DSR 48 [0 ffffffff 4 800] ------- [0:255 16:255 32 0] 2 [1 2] [0 2 0 0->16] [0 0 0 0->0]
r 15.069571202 _25_ RTR  --- 3 DSR 48 [0 ffffffff 4 800] ------- [0:255 16:255 32 0] 2 [1 2] [0 2 0 0->16] [0 0 0 0->0]
r 15.069571202 _24_ RTR  --- 3 DSR 48 [0 ffffffff 4 800] ------- [0:255 16:255 32 0] 2 [1 2] [0 2 0 0->16] [0 0 0 0->0]
r 15.069571397 _3_ RTR  --- 3 DSR 48 [0 ffffffff 4 800] ------- [0:255 16:255 32 0] 2 [1 2] [0 2 0 0->16] [0 0 0 0->0]
r 15.069571397 _10_ RTR  --- 3 DSR 48 [0 ffffffff 4 800] ------- [0:255 16:255 32 0] 2 [1 2] [0 2 0 0->16] [0 0 0 0->0]
r 15.069571397 _5_ RTR  --- 3 DSR 48 [0 ffffffff 4 800] ------- [0:255 16:255 32 0] 2 [1 2] [0 2 0 0->16] [0 0 0 0->0]
r 15.069571476 _23_ RTR  --- 3 DSR 48 [0 ffffffff 4 800] ------- [0:255 16:255 32 0] 2 [1 2] [0 2 0 0->16] [0 0 0 0->0]
r 15.069571476 _6_ RTR  --- 3 DSR 48 [0 ffffffff 4 800] ------- [0:255 16:255 32 0] 2 [1 2] [0 2 0 0->16] [0 0 0 0->0]
r 15.069571476 _0_ RTR  --- 3 DSR 48 [0 ffffffff 4 800] ------- [0:255 16:255 32 0] 2 [1 2] [0 2 0 0->16] [0 0 0 0->0]
r 15.069571476 _22_ RTR  --- 3 DSR 48 [0 ffffffff 4 800] ------- [0:255 16:255 32 0] 2 [1 2] [0 2 0 0->16] [0 0 0 0->0]
r 15.069571476 _2_ RTR  --- 3 DSR 48 [0 ffffffff 4 800] ------- [0:255 16:255 32 0] 2 [1 2] [0 2 0 0->16] [0 0 0 0->0]
r 15.069571476 _8_ RTR  --- 3 DSR 48 [0 ffffffff 4 800] ------- [0:255 16:255 32 0] 2 [1 2] [0 2 0 0->16] [0 0 0 0->0]
f 15.070109915 _22_ RTR  --- 3 DSR 68 [0 ffffffff 4 800] ------- [0:255 16:255 32 0] 3 [1 2] [0 2 0 0->16] [0 0 0 0->0]
f 15.070839457 _10_ RTR  --- 3 DSR 68 [0 ffffffff 4 800] ------- [0:255 16:255 32 0] 3 [1 2] [0 2 0 0->16] [0 0 0 0->0]
r 15.071590248 _20_ RTR  --- 3 DSR 68 [0 ffffffff 16 800] ------- [0:255 16:255 32 0] 3 [1 2] [0 2 0 0->16] [0 0 0 0->0]
r 15.071590248 _10_ RTR  --- 3 DSR 68 [0 ffffffff 16 800] ------- [0:255 16:255 32 0] 3 [1 2] [0 2 0 0->16] [0 0 0 0->0]
r 15.071590248 _24_ RTR  --- 3 DSR 68 [0 ffffffff 16 800] ------- [0:255 16:255 32 0] 3 [1 2] [0 2 0 0->16] [0 0 0 0->0]
r 15.071590248 _11_ RTR  --- 3 DSR 68 [0 ffffffff 16 800] ------- [0:255 16:255 32 0] 3 [1 2] [0 2 0 0->16] [0 0 0 0->0]
r 15.071590386 _13_ RTR  --- 3 DSR 68 [0 ffffffff 16 800] ------- [0:255 16:255 32 0] 3 [1 2] [0 2 0 0->16] [0 0 0 0->0]
r 15.071590386 _7_ RTR  --- 3 DSR 68 [0 ffffffff 16 800] ------- [0:255 16:255 32 0] 3 [1 2] [0 2 0 0->16] [0 0 0 0->0]
r 15.071590386 _8_ RTR  --- 3 DSR 68 [0 ffffffff 16 800] ------- [0:255 16:255 32 0] 3 [1 2] [0 2 0 0->16] [0 0 0 0->0]
r 15.071590386 _14_ RTR  --- 3 DSR 68 [0 ffffffff 16 800] ------- [0:255 16:255 32 0] 3 [1 2] [0 2 0 0->16] [0 0 0 0->0]
r 15.071590581 _18_ RTR  --- 3 DSR 68 [0 ffffffff 16 800] ------- [0:255 16:255 32 0] 3 [1 2] [0 2 0 0->16] [0 0 0 0->0]
r 15.071590581 _23_ RTR  --- 3 DSR 68 [0 ffffffff 16 800] ------- [0:255 16:255 32 0] 3 [1 2] [0 2 0 0->16] [0 0 0 0->0]
r 15.071590581 _26_ RTR  --- 3 DSR 68 [0 ffffffff 16 800] ------- [0:255 16:255 32 0] 3 [1 2] [0 2 0 0->16] [0 0 0 0->0]
r 15.071590660 _16_ RTR  --- 3 DSR 68 [0 ffffffff 16 800] ------- [0:255 16:255 32 0] 3 [1 2] [0 2 0 0->16] [0 0 0 0->0]
r 15.071590660 _4_ RTR  --- 3 DSR 68 [0 ffffffff 16 800] ------- [0:255 16:255 32 0] 3 [1 2] [0 2 0 0->16] [0 0 0 0->0]
r 15.071590660 _25_ RTR  --- 3 DSR 68 [0 ffffffff 16 800] ------- [0:255 16:255 32 0] 3 [1 2] [0 2 0 0->16] [0 0 0 0->0]
r 15.071590660 _21_ RTR  --- 3 DSR 68 [0 ffffffff 16 800] ------- [0:255 16:255 32 0] 3 [1 2] [0 2 0 0->16] [0 0 0 0->0]
r 15.071590660 _5_ RTR  --- 3 DSR 68 [0 ffffffff 16 800] ------- [0:255 16:255 32 0] 3 [1 2] [0 2 0 0->16] [0 0 0 0->0]
r 15.071590660 _17_ RTR  --- 3 DSR 68 [0 ffffffff 16 800] ------- [0:255 16:255 32 0] 3 [1 2] [0 2 0 0->16] [0 0 0 0->0]
f 15.071851354 _21_ RTR  --- 3 DSR 92 [0 ffffffff 16 800] ------- [0:255 16:255 32 0] 4 [1 2] [0 2 0 0->16] [0 0 0 0->0]
f 15.071934385 _8_ RTR  --- 3 DSR 68 [0 ffffffff 4 800] ------- [0:255 16:255 32 0] 3 [1 2] [0 2 0 0->16] [0 0 0 0->0]
f 15.072567054 _1_ RTR  --- 3 DSR 48 [0 ffffffff 0 800] ------- [0:255 16:255 32 0] 2 [1 2] [0 2 0 0->16] [0 0 0 0->0]
r 15.072760581 _7_ RTR  --- 3 DSR 68 [0 ffffffff a 800] ------- [0:255 16:255 32 0] 3 [1 2] [0 2 0 0->16] [0 0 0 0->0]
r 15.072760581 _23_ RTR  --- 3 DSR 68 [0 ffffffff a 800] ------- [0:255 16:255 32 0] 3 [1 2] [0 2 0 0->16] [0 0 0 0->0]
r 15.072760581 _13_ RTR  --- 3 DSR 68 [0 ffffffff a 800] ------- [0:255 16:255 32 0] 3 [1 2] [0 2 0 0->16] [0 0 0 0->0]
r 15.072760581 _22_ RTR  --- 3 DSR 68 [0 ffffffff a 800] ------- [0:255 16:255 32 0] 3 [1 2] [0 2 0 0->16] [0 0 0 0->0]
r 15.072760719 _25_ RTR  --- 3 DSR 68 [0 ffffffff a 800] ------- [0:255 16:255 32 0] 3 [1 2] [0 2 0 0->16] [0 0 0 0->0]
r 15.072760719 _21_ RTR  --- 3 DSR 68 [0 ffffffff a 800] ------- [0:255 16:255 32 0] 3 [1 2] [0 2 0 0->16] [0 0 0 0->0]
r 15.072760719 _20_ RTR  --- 3 DSR 68 [0 ffffffff a 800] ------- [0:255 16:255 32 0] 3 [1 2] [0 2 0 0->16] [0 0 0 0->0]
r 15.072760719 _24_ RTR  --- 3 DSR 68 [0 ffffffff a 800] ------- [0:255 16:255 32 0] 3 [1 2] [0 2 0 0->16] [0 0 0 0->0]
r 15.072760915 _4_ RTR  --- 3 DSR 68 [0 ffffffff a 800] ------- [0:255 16:255 32 0] 3 [1 2] [0 2 0 0->16] [0 0 0 0->0]
r 15.072760915 _9_ RTR  --- 3 DSR 68 [0 ffffffff a 800] ------- [0:255 16:255 32 0] 3 [1 2] [0 2 0 0->16] [0 0 0 0->0]
r 15.072760915 _16_ RTR  --- 3 DSR 68 [0 ffffffff a 800] ------- [0:255 16:255 32 0] 3 [1 2] [0 2 0 0->16] [0 0 0 0->0]
r 15.072760915 _11_ RTR  --- 3 DSR 68 [0 ffffffff a 800] ------- [0:255 16:255 32 0] 3 [1 2] [0 2 0 0->16] [0 0 0 0->0]
r 15.072760993 _19_ RTR  --- 3 DSR 68 [0 ffffffff a 800] ------- [0:255 16:255 32 0] 3 [1 2] [0 2 0 0->16] [0 0 0 0->0]
r 15.072760993 _12_ RTR  --- 3 DSR 68 [0 ffffffff a 800] ------- [0:255 16:255 32 0] 3 [1 2] [0 2 0 0->16] [0 0 0 0->0]
r 15.072760993 _6_ RTR  --- 3 DSR 68 [0 ffffffff a 800] ------- [0:255 16:255 32 0] 3 [1 2] [0 2 0 0->16] [0 0 0 0->0]
r 15.072760993 _18_ RTR  --- 3 DSR 68 [0 ffffffff a 800] ------- [0:255 16:255 32 0] 3 [1 2] [0 2 0 0->16] [0 0 0 0->0]
r 15.072760993 _26_ RTR  --- 3 DSR 68 [0 ffffffff a 800] ------- [0:255 16:255 32 0] 3 [1 2] [0 2 0 0->16] [0 0 0 0->0]
r 15.072760993 _8_ RTR  --- 3 DSR 68 [0 ffffffff a 800] ------- [0:255 16:255 32 0] 3 [1 2] [0 2 0 0->16] [0 0 0 0->0]
r 15.072760993 _14_ RTR  --- 3 DSR 68 [0 ffffffff a 800] ------- [0:255 16:255 32 0] 3 [1 2] [0 2 0 0->16] [0 0 0 0->0]
f 15.072866975 _5_ RTR  --- 3 DSR 68 [0 ffffffff 4 800] ------- [0:255 16:255 32 0] 3 [1 2] [0 2 0 0->16] [0 0 0 0->0]
f 15.072891008 _7_ RTR  --- 3 DSR 68 [0 ffffffff 3 800] ------- [0:255 16:255 32 0] 3 [1 2] [0 2 0 0->16] [0 0 0 0->0]
f 15.073346702 _25_ RTR  --- 3 DSR 48 [0 ffffffff 0 800] ------- [0:255 16:255 32 0] 2 [1 2] [0 2 0 0->16] [0 0 0 0->0]
f 15.073595406 _6_ RTR  --- 3 DSR 48 [0 ffffffff 0 800] ------- [0:255 16:255 32 0] 2 [1 2] [0 2 0 0->16] [0 0 0 0->0]
s 15.073838194 _16_ RTR  --- 6 DSR 60 [0 0 0 0] ------- [16:255 0:255 254 22] 4 [0 2] [1 2 4 0->16] [0 0 0 0->0]
f 15.073853092 _26_ RTR  --- 3 DSR 68 [0 ffffffff 4 800] ------- [0:255 16:255 32 0] 3 [1 2] [0 2 0 0->16] [0 0 0 0->0]
f 15.073888139 _19_ RTR  --- 3 DSR 92 [0 ffffffff a 800] ------- [0:255 16:255 32 0] 4 [1 2] [0 2 0 0->16] [0 0 0 0->0]
r 15.074083053 _19_ RTR  --- 3 DSR 92 [0 ffffffff 15 800] ------- [0:255 16:255 32 0] 4 [1 2] [0 2 0 0->16] [0 0 0 0->0]
r 15.074083053 _12_ RTR  --- 3 DSR 92 [0 ffffffff 15 800] ------- [0:255 16:255 32 0] 4 [1 2] [0 2 0 0->16] [0 0 0 0->0]
r 15.074083053 _23_ RTR  --- 3 DSR 92 [0 ffffffff 15 800] ------- [0:255 16:255 32 0] 4 [1 2] [0 2 0 0->16] [0 0 0 0->0]
r 15.074083053 _13_ RTR  --- 3 DSR 92 [0 ffffffff 15 800] ------- [0:255 16:255 32 0] 4 [1 2] [0 2 0 0->16] [0 0 0 0->0]
r 15.074083191 _15_ RTR  --- 3 DSR 92 [0 ffffffff 15 800] ------- [0:255 16:255 32 0] 4 [1 2] [0 2 0 0->16] [0 0 0 0->0]
r 15.074083191 _9_ RTR  --- 3 DSR 92 [0 ffffffff 15 800] ------- [0:255 16:255 32 0] 4 [1 2] [0 2 0 0->16] [0 0 0 0->0]
r 15.074083191 _10_ RTR  --- 3 DSR 92 [0 ffffffff 15 800] ------- [0:255 16:255 32 0] 4 [1 2] [0 2 0 0->16] [0 0 0 0->0]
r 15.074083191 _16_ RTR  --- 3 DSR 92 [0 ffffffff 15 800] ------- [0:255 16:255 32 0] 4 [1 2] [0 2 0 0->16] [0 0 0 0->0]
r 15.074083386 _25_ RTR  --- 3 DSR 92 [0 ffffffff 15 800] ------- [0:255 16:255 32 0] 4 [1 2] [0 2 0 0->16] [0 0 0 0->0]
r 15.074083386 _20_ RTR  --- 3 DSR 92 [0 ffffffff 15 800] ------- [0:255 16:255 32 0] 4 [1 2] [0 2 0 0->16] [0 0 0 0->0]
r 15.074083465 _6_ RTR  --- 3 DSR 92 [0 ffffffff 15 800] ------- [0:255 16:255 32 0] 4 [1 2] [0 2 0 0->16] [0 0 0 0->0]
r 15.074083465 _7_ RTR  --- 3 DSR 92 [0 ffffffff 15 800] ------- [0:255 16:255 32 0] 4 [1 2] [0 2 0 0->16] [0 0 0 0->0]
r 15.074083465 _18_ RTR  --- 3 DSR 92 [0 ffffffff 15 800] ------- [0:255 16:255 32 0] 4 [1 2] [0 2 0 0->16] [0 0 0 0->0]
r 15.074083465 _22_ RTR  --- 3 DSR 92 [0 ffffffff 15 800] ------- [0:255 16:255 32 0] 4 [1 2] [0 2 0 0->16] [0 0 0 0->0]
f 15.074157463 _23_ RTR  --- 3 DSR 68 [0 ffffffff 3 800] ------- [0:255 16:255 32 0] 3 [1 2] [0 2 0 0->16] [0 0 0 0->0]
r 15.074933719 _23_ RTR  --- 3 DSR 48 [0 ffffffff 19 800] ------- [0:255 16:255 32 0] 2 [1 2] [0 2 0 0->16] [0 0 0 0->0]
r 15.074933719 _6_ RTR  --- 3 DSR 48 [0 ffffffff 19 800] ------- [0:255 16:255 32 0] 2 [1 2] [0 2 0 0->16] [0 0 0 0->0]
r 15.074933719 _7_ RTR  --- 3 DSR 48 [0 ffffffff 19 800] ------- [0:255 16:255 32 0] 2 [1 2] [0 2 0 0->16] [0 0 0 0->0]
r 15.074933857 _9_ RTR  --- 3 DSR 48 [0 ffffffff 19 800] ------- [0:255 16:255 32 0] 2 [1 2] [0 2 0 0->16] [0 0 0 0->0]
r 15.074933857 _3_ RTR  --- 3 DSR 48 [0 ffffffff 19 800] ------- [0:255 16:255 32 0] 2 [1 2] [0 2 0 0->16] [0 0 0 0->0]
r 15.074933857 _4_ RTR  --- 3 DSR 48 [0 ffffffff 19 800] ------- [0:255 16:255 32 0] 2 [1 2] [0 2 0 0->16] [0 0 0 0->0]
r 15.074933857 _10_ RTR  --- 3 DSR 48 [0 ffffffff 19 800] ------- [0:255 16:255 32 0] 2 [1 2] [0 2 0 0->16] [0 0 0 0->0]
r 15.074934053 _21_ RTR  --- 3 DSR 48 [0 ffffffff 19 800] ------- [0:255 16:255 32 0] 2 [1 2] [0 2 0 0->16] [0 0 0 0->0]
r 15.074934053 _24_ RTR  --- 3 DSR 48 [0 ffffffff 19 800] ------- [0:255 16:255 32 0] 2 [1 2] [0 2 0 0->16] [0 0 0 0->0]
r 15.074934131 _12_ RTR  --- 3 DSR 48 [0 ffffffff 19 800] ------- [0:255 16:255 32 0] 2 [1 2] [0 2 0 0->16] [0 0 0 0->0]
r 15.074934131 _0_ RTR  --- 3 DSR 48 [0 ffffffff 19 800] ------- [0:255 16:255 32 0] 2 [1 2] [0 2 0 0->16] [0 0 0 0->0]
r 15.074934131 _1_ RTR  --- 3 DSR 48 [0 ffffffff 19 800] ------- [0:255 16:255 32 0] 2 [1 2] [0 2 0 0->16] [0 0 0 0->0]
r 15.074934131 _13_ RTR  --- 3 DSR 48 [0 ffffffff 19 800] ------- [0:255 16:255 32 0] 2 [1 2] [0 2 0 0->16] [0 0 0 0->0]
r 15.074934131 _22_ RTR  --- 3 DSR 48 [0 ffffffff 19 800] ------- [0:255 16:255 32 0] 2 [1 2] [0 2 0 0->16] [0 0 0 0->0]
r 15.074934131 _26_ RTR  --- 3 DSR 48 [0 ffffffff 19 800] ------- [0:255 16:255 32 0] 2 [1 2] [0 2 0 0->16] [0 0 0 0->0]
f 15.075475787 _17_ RTR  --- 3 DSR 92 [0 ffffffff 16 800] ------- [0:255 16:255 32 0] 4 [1 2] [0 2 0 0->16] [0 0 0 0->0]
f 15.075509178 _2_ RTR  --- 3 DSR 68 [0 ffffffff 4 800] ------- [0:255 16:255 32 0] 3 [1 2] [0 2 0 0->16] [0 0 0 0->0]
r 15.075784603 _26_ RTR  --- 3 DSR 48 [0 ffffffff 1 800] ------- [0:255 16:255 32 0] 2 [1 2] [0 2 0 0->16] [0 0 0 0->0]
r 15.075784798 _2_ RTR  --- 3 DSR 48 [0 ffffffff 1 800] ------- [0:255 16:255 32 0] 2 [1 2] [0 2 0 0->16] [0 0 0 0->0]
r 15.075944053 _21_ RTR  --- 3 DSR 68 [0 ffffffff 17 800] ------- [0:255 16:255 32 0] 3 [1 2] [0 2 0 0->16] [0 0 0 0->0]
r 15.075944053 _9_ RTR  --- 3 DSR 68 [0 ffffffff 17 800] ------- [0:255 16:255 32 0] 3 [1 2] [0 2 0 0->16] [0 0 0 0->0]
r 15.075944053 _25_ RTR  --- 3 DSR 68 [0 ffffffff 17 800] ------- [0:255 16:255 32 0] 3 [1 2] [0 2 0 0->16] [0 0 0 0->0]
r 15.075944053 _10_ RTR  --- 3 DSR 68 [0 ffffffff 17 800] ------- [0:255 16:255 32 0] 3 [1 2] [0 2 0 0->16] [0 0 0 0->0]
r 15.075944191 _12_ RTR  --- 3 DSR 68 [0 ffffffff 17 800] ------- [0:255 16:255 32 0] 3 [1 2] [0 2 0 0->16] [0 0 0 0->0]
r 15.075944191 _6_ RTR  --- 3 DSR 68 [0 ffffffff 17 800] ------- [0:255 16:255 32 0] 3 [1 2] [0 2 0 0->16] [0 0 0 0->0]
r 15.075944191 _13_ RTR  --- 3 DSR 68 [0 ffffffff 17 800] ------- [0:255 16:255 32 0] 3 [1 2] [0 2 0 0->16] [0 0 0 0->0]
r 15.075944386 _19_ RTR  --- 3 DSR 68 [0 ffffffff 17 800] ------- [0:255 16:255 32 0] 3 [1 2] [0 2 0 0->16] [0 0 0 0->0]
r 15.075944465 _15_ RTR  --- 3 DSR 68 [0 ffffffff 17 800] ------- [0:255 16:255 32 0] 3 [1 2] [0 2 0 0->16] [0 0 0 0->0]
r 15.075944465 _16_ RTR  --- 3 DSR 68 [0 ffffffff 17 800] ------- [0:255 16:255 32 0] 3 [1 2] [0 2 0 0->16] [0 0 0 0->0]
r 15.075944465 _20_ RTR  --- 3 DSR 68 [0 ffffffff 17 800] ------- [0:255 16:255 32 0] 3 [1 2] [0 2 0 0->16] [0 0 0 0->0]
f 15.076418081 _9_ RTR  --- 3 DSR 68 [0 ffffffff 3 800] ------- [0:255 16:255 32 0] 3 [1 2] [0 2 0 0->16] [0 0 0 0->0]
s 15.076947872 _16_ RTR  --- 9 DSR 60 [0 0 0 0] ------- [16:255 0:255 254 23] 4 [0 2] [1 2 4 0->16] [0 0 0 0->0]
r 15.077159408 _3_ RTR  --- 3 DSR 48 [0 ffffffff 6 800] ------- [0:255 16:255 32 0] 2 [1 2] [0 2 0 0->16] [0 0 0 0->0]
r 15.077159408 _9_ RTR  --- 3 DSR 48 [0 ffffffff 6 800] ------- [0:255 16:255 32 0] 2 [1 2] [0 2 0 0->16] [0 0 0 0->0]
r 15.077159408 _25_ RTR  --- 3 DSR 48 [0 ffffffff 6 800] ------- [0:255 16:255 32 0] 2 [1 2] [0 2 0 0->16] [0 0 0 0->0]
r 15.077159546 _23_ RTR  --- 3 DSR 48 [0 ffffffff 6 800] ------- [0:255 16:255 32 0] 2 [1 2] [0 2 0 0->16] [0 0 0 0->0]
r 15.077159741 _0_ RTR  --- 3 DSR 48 [0 ffffffff 6 800] ------- [0:255 16:255 32 0] 2 [1 2] [0 2 0 0->16] [0 0 0 0->0]
r 15.077159741 _12_ RTR  --- 3 DSR 48 [0 ffffffff 6 800] ------- [0:255 16:255 32 0] 2 [1 2] [0 2 0 0->16] [0 0 0 0->0]
r 15.077159741 _7_ RTR  --- 3 DSR 48 [0 ffffffff 6 800] ------- [0:255 16:255 32 0] 2 [1 2] [0 2 0 0->16] [0 0 0 0->0]
r 15.077159820 _21_ RTR  --- 3 DSR 48 [0 ffffffff 6 800] ------- [0:255 16:255 32 0] 2 [1 2] [0 2 0 0->16] [0 0 0 0->0]
r 15.077159820 _4_ RTR  --- 3 DSR 48 [0 ffffffff 6 800] ------- [0:255 16:255 32 0] 2 [1 2] [0 2 0 0->16] [0 0 0 0->0]
r 15.077159820 _10_ RTR  --- 3 DSR 48 [0 ffffffff 6 800] ------- [0:255 16:255 32 0] 2 [1 2] [0 2 0 0->16] [0 0 0 0->0]
f 15.077799757 _24_ RTR  --- 3 DSR 68 [0 ffffffff 4 800] ------- [0:255 16:255 32 0] 3 [1 2] [0 2 0 0->16] [0 0 0 0->0]
f 15.077930041 _13_ RTR  --- 3 DSR 92 [0 ffffffff 16 800] ------- [0:255 16:255 32 0] 4 [1 2] [0 2 0 0->16] [0 0 0 0->0]
f 15.077947079 _14_ RTR  --- 3 DSR 92 [0 ffffffff 16 800] ------- [0:255 16:255 32 0] 4 [1 2] [0 2 0 0->16] [0 0 0 0->0]
r 15.078510074 _4_ RTR  --- 3 DSR 68 [0 ffffffff 7 800] ------- [0:255 16:255 32 0] 3 [1 2] [0 2 0 0->16] [0 0 0 0->0]
r 15.078510074 _25_ RTR  --- 3 DSR 68 [0 ffffffff 7 800] ------- [0:255 16:255 32 0] 3 [1 2] [0 2 0 0->16] [0 0 0 0->0]
r 15.078510074 _10_ RTR  --- 3 DSR 68 [0 ffffffff 7 800] ------- [0:255 16:255 32 0] 3 [1 2] [0 2 0 0->16] [0 0 0 0->0]
r 15.078510074 _24_ RTR  --- 3 DSR 68 [0 ffffffff 7 800] ------- [0:255 16:255 32 0] 3 [1 2] [0 2 0 0->16] [0 0 0 0->0]
r 15.078510212 _23_ RTR  --- 3 DSR 68 [0 ffffffff 7 800] ------- [0:255 16:255 32 0] 3 [1 2] [0 2 0 0->16] [0 0 0 0->0]
r 15.078510212 _22_ RTR  --- 3 DSR 68 [0 ffffffff 7 800] ------- [0:255 16:255 32 0] 3 [1 2] [0 2 0 0->16] [0 0 0 0->0]
r 15.078510212 _26_ RTR  --- 3 DSR 68 [0 ffffffff 7 800] ------- [0:255 16:255 32 0] 3 [1 2] [0 2 0 0->16] [0 0 0 0->0]
r 15.078510408 _1_ RTR  --- 3 DSR 68 [0 ffffffff 7 800] ------- [0:255 16:255 32 0] 3 [1 2] [0 2 0 0->16] [0 0 0 0->0]
r 15.078510408 _6_ RTR  --- 3 DSR 68 [0 ffffffff 7 800] ------- [0:255 16:255 32 0] 3 [1 2] [0 2 0 0->16] [0 0 0 0->0]
r 15.078510408 _13_ RTR  --- 3 DSR 68 [0 ffffffff 7 800] ------- [0:255 16:255 32 0] 3 [1 2] [0 2 0 0->16] [0 0 0 0->0]
r 15.078510408 _8_ RTR  --- 3 DSR 68 [0 ffffffff 7 800] ------- [0:255 16:255 32 0] 3 [1 2] [0 2 0 0->16] [0 0 0 0->0]
r 15.078510486 _21_ RTR  --- 3 DSR 68 [0 ffffffff 7 800] ------- [0:255 16:255 32 0] 3 [1 2] [0 2 0 0->16] [0 0 0 0->0]
r 15.078510486 _9_ RTR  --- 3 DSR 68 [0 ffffffff 7 800] ------- [0:255 16:255 32 0] 3 [1 2] [0 2 0 0->16] [0 0 0 0->0]
r 15.078510486 _3_ RTR  --- 3 DSR 68 [0 ffffffff 7 800] ------- [0:255 16:255 32 0] 3 [1 2] [0 2 0 0->16] [0 0 0 0->0]
r 15.078510486 _20_ RTR  --- 3 DSR 68 [0 ffffffff 7 800] ------- [0:255 16:255 32 0] 3 [1 2] [0 2 0 0->16] [0 0 0 0->0]
r 15.078510486 _5_ RTR  --- 3 DSR 68 [0 ffffffff 7 800] ------- [0:255 16:255 32 0] 3 [1 2] [0 2 0 0->16] [0 0 0 0->0]
r 15.078510486 _11_ RTR  --- 3 DSR 68 [0 ffffffff 7 800] ------- [0:255 16:255 32 0] 3 [1 2] [0 2 0 0->16] [0 0 0 0->0]
r 15.079752741 _10_ RTR  --- 3 DSR 92 [0 ffffffff d 800] ------- [0:255 16:255 32 0] 4 [1 2] [0 2 0 0->16] [0 0 0 0->0]
r 15.079752741 _21_ RTR  --- 3 DSR 92 [0 ffffffff d 800] ------- [0:255 16:255 32 0] 4 [1 2] [0 2 0 0->16] [0 0 0 0->0]
r 15.079752741 _16_ RTR  --- 3 DSR 92 [0 ffffffff d 800] ------- [0:255 16:255 32 0] 4 [1 2] [0 2 0 0->16] [0 0 0 0->0]
r 15.079752741 _20_ RTR  --- 3 DSR 92 [0 ffffffff d 800] ------- [0:255 16:255 32 0] 4 [1 2] [0 2 0 0->16] [0 0 0 0->0]
r 15.079752879 _23_ RTR  --- 3 DSR 92 [0 ffffffff d 800] ------- [0:255 16:255 32 0] 4 [1 2] [0 2 0 0->16] [0 0 0 0->0]
r 15.079752879 _19_ RTR  --- 3 DSR 92 [0 ffffffff d 800] ------- [0:255 16:255 32 0] 4 [1 2] [0 2 0 0->16] [0 0 0 0->0]
r 15.079752879 _18_ RTR  --- 3 DSR 92 [0 ffffffff d 800] ------- [0:255 16:255 32 0] 4 [1 2] [0 2 0 0->16] [0 0 0 0->0]
r 15.079752879 _22_ RTR  --- 3 DSR 92 [0 ffffffff d 800] ------- [0:255 16:255 32 0] 4 [1 2] [0 2 0 0->16] [0 0 0 0->0]
r 15.079753074 _7_ RTR  --- 3 DSR 92 [0 ffffffff d 800] ------- [0:255 16:255 32 0] 4 [1 2] [0 2 0 0->16] [0 0 0 0->0]
r 15.079753074 _12_ RTR  --- 3 DSR 92 [0 ffffffff d 800] ------- [0:255 16:255 32 0] 4 [1 2] [0 2 0 0->16] [0 0 0 0->0]
r 15.079753074 _14_ RTR  --- 3 DSR 92 [0 ffffffff d 800] ------- [0:255 16:255 32 0] 4 [1 2] [0 2 0 0->16] [0 0 0 0->0]
r 15.079753153 _25_ RTR  --- 3 DSR 92 [0 ffffffff d 800] ------- [0:255 16:255 32 0] 4 [1 2] [0 2 0 0->16] [0 0 0 0->0]
r 15.079753153 _15_ RTR  --- 3 DSR 92 [0 ffffffff d 800] ------- [0:255 16:255 32 0] 4 [1 2] [0 2 0 0->16] [0 0 0 0->0]
r 15.079753153 _9_ RTR  --- 3 DSR 92 [0 ffffffff d 800] ------- [0:255 16:255 32 0] 4 [1 2] [0 2 0 0->16] [0 0 0 0->0]
r 15.079753153 _24_ RTR  --- 3 DSR 92 [0 ffffffff d 800] ------- [0:255 16:255 32 0] 4 [1 2] [0 2 0 0->16] [0 0 0 0->0]
r 15.079753153 _11_ RTR  --- 3 DSR 92 [0 ffffffff d 800] ------- [0:255 16:255 32 0] 4 [1 2] [0 2 0 0->16] [0 0 0 0->0]
r 15.079753153 _17_ RTR  --- 3 DSR 92 [0 ffffffff d 800] ------- [0:255 16:255 32 0] 4 [1 2] [0 2 0 0->16] [0 0 0 0->0]
s 15.079896817 _16_ RTR  --- 7 DSR 60 [0 0 0 0] ------- [16:255 0:255 254 10] 4 [0 2] [1 2 4 0->16] [0 0 0 0->0]
s 15.080299975 _16_ RTR  --- 8 DSR 68 [0 0 0 0] ------- [16:255 0:255 254 21] 5 [0 2] [1 2 5 0->16] [0 0 0 0->0]
f 15.080379544 _18_ RTR  --- 3 DSR 92 [0 ffffffff 16 800] ------- [0:255 16:255 32 0] 4 [1 2] [0 2 0 0->16] [0 0 0 0->0]
f 15.080526923 _20_ RTR  --- 3 DSR 92 [0 ffffffff 16 800] ------- [0:255 16:255 32 0] 4 [1 2] [0 2 0 0->16] [0 0 0 0->0]
r 15.080975212 _15_ RTR  --- 3 DSR 92 [0 ffffffff 13 800] ------- [0:255 16:255 32 0] 4 [1 2] [0 2 0 0->16] [0 0 0 0->0]
r 15.080975212 _21_ RTR  --- 3 DSR 92 [0 ffffffff 13 800] ------- [0:255 16:255 32 0] 4 [1 2] [0 2 0 0->16] [0 0 0 0->0]
r 15.080975212 _16_ RTR  --- 3 DSR 92 [0 ffffffff 13 800] ------- [0:255 16:255 32 0] 4 [1 2] [0 2 0 0->16] [0 0 0 0->0]
r 15.080975350 _12_ RTR  --- 3 DSR 92 [0 ffffffff 13 800] ------- [0:255 16:255 32 0] 4 [1 2] [0 2 0 0->16] [0 0 0 0->0]
r 15.080975350 _13_ RTR  --- 3 DSR 92 [0 ffffffff 13 800] ------- [0:255 16:255 32 0] 4 [1 2] [0 2 0 0->16] [0 0 0 0->0]
r 15.080975546 _23_ RTR  --- 3 DSR 92 [0 ffffffff 13 800] ------- [0:255 16:255 32 0] 4 [1 2] [0 2 0 0->16] [0 0 0 0->0]
r 15.080975546 _18_ RTR  --- 3 DSR 92 [0 ffffffff 13 800] ------- [0:255 16:255 32 0] 4 [1 2] [0 2 0 0->16] [0 0 0 0->0]
r 15.080975624 _9_ RTR  --- 3 DSR 92 [0 ffffffff 13 800] ------- [0:255 16:255 32 0] 4 [1 2] [0 2 0 0->16] [0 0 0 0->0]
r 15.080975624 _20_ RTR  --- 3 DSR 92 [0 ffffffff 13 800] ------- [0:255 16:255 32 0] 4 [1 2] [0 2 0 0->16] [0 0 0 0->0]
f 15.081541417 _11_ RTR  --- 3 DSR 92 [0 ffffffff 16 800] ------- [0:255 16:255 32 0] 4 [1 2] [0 2 0 0->16] [0 0 0 0->0]
f 15.081573704 _12_ RTR  --- 3 DSR 92 [0 ffffffff a 800] ------- [0:255 16:255 32 0] 4 [1 2] [0 2 0 0->16] [0 0 0 0->0]
f 15.082091729 _15_ RTR  --- 3 DSR 120 [0 ffffffff 15 800] ------- [0:255 16:255 32 0] 5 [1 2] [0 2 0 0->16] [0 0 0 0->0]
r 15.083266037 _9_ RTR  --- 3 DSR 92 [0 ffffffff c 800] ------- [0:255 16:255 32 0] 4 [1 2] [0 2 0 0->16] [0 0 0 0->0]
r 15.083266037 _15_ RTR  --- 3 DSR 92 [0 ffffffff c 800] ------- [0:255 16:255 32 0] 4 [1 2] [0 2 0 0->16] [0 0 0 0->0]
r 15.083266037 _21_ RTR  --- 3 DSR 92 [0 ffffffff c 800] ------- [0:255 16:255 32 0] 4 [1 2] [0 2 0 0->16] [0 0 0 0->0]
r 15.083266175 _19_ RTR  --- 3 DSR 92 [0 ffffffff c 800] ------- [0:255 16:255 32 0] 4 [1 2] [0 2 0 0->16] [0 0 0 0->0]
r 15.083266175 _23_ RTR  --- 3 DSR 92 [0 ffffffff c 800] ------- [0:255 16:255 32 0] 4 [1 2] [0 2 0 0->16] [0 0 0 0->0]
r 15.083266370 _6_ RTR  --- 3 DSR 92 [0 ffffffff c 800] ------- [0:255 16:255 32 0] 4 [1 2] [0 2 0 0->16] [0 0 0 0->0]
r 15.083266370 _13_ RTR  --- 3 DSR 92 [0 ffffffff c 800] ------- [0:255 16:255 32 0] 4 [1 2] [0 2 0 0->16] [0 0 0 0->0]
r 15.083266449 _25_ RTR  --- 3 DSR 92 [0 ffffffff c 800] ------- [0:255 16:255 32 0] 4 [1 2] [0 2 0 0->16] [0 0 0 0->0]
r 15.083266449 _10_ RTR  --- 3 DSR 92 [0 ffffffff c 800] ------- [0:255 16:255 32 0] 4 [1 2] [0 2 0 0->16] [0 0 0 0->0]
r 15.083266449 _16_ RTR  --- 3 DSR 92 [0 ffffffff c 800] ------- [0:255 16:255 32 0] 4 [1 2] [0 2 0 0->16] [0 0 0 0->0]
r 15.084376370 _6_ RTR  --- 3 DSR 68 [0 ffffffff 9 800] ------- [0:255 16:255 32 0] 3 [1 2] [0 2 0 0->16] [0 0 0 0->0]
r 15.084376370 _12_ RTR  --- 3 DSR 68 [0 ffffffff 9 800] ------- [0:255 16:255 32 0] 3 [1 2] [0 2 0 0->16] [0 0 0 0->0]
r 15.084376370 _23_ RTR  --- 3 DSR 68 [0 ffffffff 9 800] ------- [0:255 16:255 32 0] 3 [1 2] [0 2 0 0->16] [0 0 0 0->0]
r 15.084376508 _25_ RTR  --- 3 DSR 68 [0 ffffffff 9 800] ------- [0:255 16:255 32 0] 3 [1 2] [0 2 0 0->16] [0 0 0 0->0]
r 15.084376704 _3_ RTR  --- 3 DSR 68 [0 ffffffff 9 800] ------- [0:255 16:255 32 0] 3 [1 2] [0 2 0 0->16] [0 0 0 0->0]
s 15.085885517 _16_ RTR  --- 11 DSR 68 [0 0 0 0] ------- [16:255 0:255 254 19] 5 [0 2] [1 2 5 0->16] [0 0 0 0->0]
r 15.086003704 _8_ RTR  --- 3 DSR 92 [0 ffffffff b 800] ------- [0:255 16:255 32 0] 4 [1 2] [0 2 0 0->16] [0 0 0 0->0]
r 15.086003704 _22_ RTR  --- 3 DSR 92 [0 ffffffff b 800] ------- [0:255 16:255 32 0] 4 [1 2] [0 2 0 0->16] [0 0 0 0->0]
r 15.086003704 _14_ RTR  --- 3 DSR 92 [0 ffffffff b 800] ------- [0:255 16:255 32 0] 4 [1 2] [0 2 0 0->16] [0 0 0 0->0]
r 15.086003842 _24_ RTR  --- 3 DSR 92 [0 ffffffff b 800] ------- [0:255 16:255 32 0] 4 [1 2] [0 2 0 0->16] [0 0 0 0->0]
r 15.086003842 _20_ RTR  --- 3 DSR 92 [0 ffffffff b 800] ------- [0:255 16:255 32 0] 4 [1 2] [0 2 0 0->16] [0 0 0 0->0]
r 15.086004037 _5_ RTR  --- 3 DSR 92 [0 ffffffff b 800] ------- [0:255 16:255 32 0] 4 [1 2] [0 2 0 0->16] [0 0 0 0->0]
r 15.086004037 _10_ RTR  --- 3 DSR 92 [0 ffffffff b 800] ------- [0:255 16:255 32 0] 4 [1 2] [0 2 0 0->16] [0 0 0 0->0]
r 15.086004037 _17_ RTR  --- 3 DSR 92 [0 ffffffff b 800] ------- [0:255 16:255 32 0] 4 [1 2] [0 2 0 0->16] [0 0 0 0->0]
r 15.086004116 _26_ RTR  --- 3 DSR 92 [0 ffffffff b 800] ------- [0:255 16:255 32 0] 4 [1 2] [0 2 0 0->16] [0 0 0 0->0]
r 15.086004116 _18_ RTR  --- 3 DSR 92 [0 ffffffff b 800] ------- [0:255 16:255 32 0] 4 [1 2] [0 2 0 0->16] [0 0 0 0->0]
r 15.086004116 _13_ RTR  --- 3 DSR 92 [0 ffffffff b 800] ------- [0:255 16:255 32 0] 4 [1 2] [0 2 0 0->16] [0 0 0 0->0]
r 15.086004116 _7_ RTR  --- 3 DSR 92 [0 ffffffff b 800] ------- [0:255 16:255 32 0] 4 [1 2] [0 2 0 0->16] [0 0 0 0->0]
s 15.086128521 _16_ RTR  --- 12 DSR 68 [0 0 0 0] ------- [16:255 0:255 254 12] 5 [0 2] [1 2 5 0->16] [0 0 0 0->0]
s 15.087008453 _16_ RTR  --- 10 DSR 68 [0 0 0 0] ------- [16:255 0:255 254 13] 5 [0 2] [1 2 5 0->16] [0 0 0 0->0]
r 15.087226037 _11_ RTR  --- 3 DSR 92 [0 ffffffff e 800] ------- [0:255 16:255 32 0] 4 [1 2] [0 2 0 0->16] [0 0 0 0->0]
r 15.087226037 _20_ RTR  --- 3 DSR 92 [0 ffffffff e 800] ------- [0:255 16:255 32 0] 4 [1 2] [0 2 0 0->16] [0 0 0 0->0]
r 15.087226037 _17_ RTR  --- 3 DSR 92 [0 ffffffff e 800] ------- [0:255 16:255 32 0] 4 [1 2] [0 2 0 0->16] [0 0 0 0->0]
r 15.087226175 _22_ RTR  --- 3 DSR 92 [0 ffffffff e 800] ------- [0:255 16:255 32 0] 4 [1 2] [0 2 0 0->16] [0 0 0 0->0]
r 15.087226175 _18_ RTR  --- 3 DSR 92 [0 ffffffff e 800] ------- [0:255 16:255 32 0] 4 [1 2] [0 2 0 0->16] [0 0 0 0->0]
r 15.087226370 _8_ RTR  --- 3 DSR 92 [0 ffffffff e 800] ------- [0:255 16:255 32 0] 4 [1 2] [0 2 0 0->16] [0 0 0 0->0]
r 15.087226370 _13_ RTR  --- 3 DSR 92 [0 ffffffff e 800] ------- [0:255 16:255 32 0] 4 [1 2] [0 2 0 0->16] [0 0 0 0->0]
r 15.087226449 _24_ RTR  --- 3 DSR 92 [0 ffffffff e 800] ------- [0:255 16:255 32 0] 4 [1 2] [0 2 0 0->16] [0 0 0 0->0]
r 15.087226449 _16_ RTR  --- 3 DSR 92 [0 ffffffff e 800] ------- [0:255 16:255 32 0] 4 [1 2] [0 2 0 0->16] [0 0 0 0->0]
r 15.087226449 _10_ RTR  --- 3 DSR 92 [0 ffffffff e 800] ------- [0:255 16:255 32 0] 4 [1 2] [0 2 0 0->16] [0 0 0 0->0]
r 15.088890685 _22_ RTR  --- 6 DSR 60 [13a 16 10 800] ------- [16:255 0:255 254 22] 4 [0 2] [1 2 4 0->16] [0 0 0 0->0]
f 15.088890685 _22_ RTR  --- 6 DSR 60 [13a 16 10 800] ------- [16:255 0:255 253 4] 4 [0 2] [1 2 4 0->16] [0 0 0 0->0]
r 15.090828921 _4_ RTR  --- 6 DSR 60 [13a 4 16 800] ------- [16:255 0:255 253 4] 4 [0 2] [1 2 4 0->16] [0 0 0 0->0]
f 15.090828921 _4_ RTR  --- 6 DSR 60 [13a 4 16 800] ------- [16:255 0:255 252 0] 4 [0 2] [1 2 4 0->16] [0 0 0 0->0]
r 15.092173921 _2_ RTR  --- 3 DSR 68 [0 ffffffff 5 800] ------- [0:255 16:255 32 0] 3 [1 2] [0 2 0 0->16] [0 0 0 0->0]
r 15.092173921 _26_ RTR  --- 3 DSR 68 [0 ffffffff 5 800] ------- [0:255 16:255 32 0] 3 [1 2] [0 2 0 0->16] [0 0 0 0->0]
r 15.092173921 _8_ RTR  --- 3 DSR 68 [0 ffffffff 5 800] ------- [0:255 16:255 32 0] 3 [1 2] [0 2 0 0->16] [0 0 0 0->0]
r 15.092174059 _24_ RTR  --- 3 DSR 68 [0 ffffffff 5 800] ------- [0:255 16:255 32 0] 3 [1 2] [0 2 0 0->16] [0 0 0 0->0]
r 15.092174254 _4_ RTR  --- 3 DSR 68 [0 ffffffff 5 800] ------- [0:255 16:255 32 0] 3 [1 2] [0 2 0 0->16] [0 0 0 0->0]
r 15.092174254 _11_ RTR  --- 3 DSR 68 [0 ffffffff 5 800] ------- [0:255 16:255 32 0] 3 [1 2] [0 2 0 0->16] [0 0 0 0->0]
r 15.092174333 _1_ RTR  --- 3 DSR 68 [0 ffffffff 5 800] ------- [0:255 16:255 32 0] 3 [1 2] [0 2 0 0->16] [0 0 0 0->0]
s 15.092837477 _16_ RTR  --- 13 DSR 68 [0 0 0 0] ------- [16:255 0:255 254 14] 5 [0 2] [1 2 5 0->16] [0 0 0 0->0]