n -t * -s 0  -x 100 -y 0 -Z 0 -z 30  -v circle -c black
n -t * -s 1  -x 300 -y 0 -Z 0 -z 30  -v circle -c black
n -t * -s 2  -x 500 -y 0 -Z 0 -z 30  -v circle -c black
n -t * -s 3  -x 100 -y 100 -Z 0 -z 30  -v circle -c black
n -t * -s 4  -x 300 -y 100 -Z 0 -z 30  -v circle -c black
n -t * -s 5  -x 500 -y 100 -Z 0 -z 30  -v circle -c black
n -t * -s 6  -x 100 -y 200 -Z 0 -z 30  -v circle -c black
n -t * -s 7  -x 300 -y 200 -Z 0 -z 30  -v circle -c black
n -t * -s 8  -x 500 -y 200 -Z 0 -z 30  -v circle -c black
n -t * -s 9  -x 100 -y 300 -Z 0 -z 30  -v circle -c black
n -t * -s 10  -x 300 -y 300 -Z 0 -z 30  -v circle -c black
n -t * -s 11  -x 500 -y 300 -Z 0 -z 30  -v circle -c black
n -t * -s 12  -x 100 -y 400 -Z 0 -z 30  -v circle -c black
n -t * -s 13  -x 300 -y 400 -Z 0 -z 30  -v circle -c black
n -t * -s 14  -x 500 -y 400 -Z 0 -z 30  -v circle -c black
n -t * -s 15  -x 100 -y 500 -Z 0 -z 30  -v circle -c black
n -t * -s 16  -x 300 -y 500 -Z 0 -z 30  -v circle -c black
n -t * -s 17  -x 500 -y 500 -Z 0 -z 30  -v circle -c black
n -t * -s 18  -x 400 -y 500 -Z 0 -z 30  -v circle -c black
n -t * -s 19  -x 200 -y 500 -Z 0 -z 30  -v circle -c black
n -t * -s 20  -x 400 -y 400 -Z 0 -z 30  -v circle -c black
n -t * -s 21  -x 200 -y 400 -Z 0 -z 30  -v circle -c black
n -t * -s 22  -x 400 -y 300 -Z 0 -z 30  -v circle -c black
n -t * -s 23  -x 200 -y 300 -Z 0 -z 30  -v circle -c black
n -t * -s 24  -x 400 -y 200 -Z 0 -z 30  -v circle -c black
n -t * -s 25  -x 200 -y 200 -Z 0 -z 30  -v circle -c black
n -t * -s 26  -x 400 -y 100 -Z 0 -z 30  -v circle -c black
V -t * -v 1.0a5 -a 0
W -t * -x 500 -y 500
A -t * -n 1 -p 0 -o 0xffffffff -c 31 -a 1
A -t * -h 1 -m 2147483647 -s 0
+ -t 15.000000000 -s 0 -d -1 -p cbr -e 512 -c 2 -a 0 -i 0 -k AGT 
- -t 15.000000000 -s 0 -d -1 -p cbr -e 512 -c 2 -a 0 -i 0 -k AGT
h -t 15.000000000 -s 0 -d -1 -p cbr -e 512 -c 2 -a 0 -i 0 -k AGT
+ -t 15.007499249 -s 0 -d -1 -p DSR -e 32 -c 2 -a 0 -i 1 -k RTR 
- -t 15.007499249 -s 0 -d -1 -p DSR -e 32 -c 2 -a 0 -i 1 -k RTR
h -t 15.007499249 -s 0 -d -1 -p DSR -e 32 -c 2 -a 0 -i 1 -k RTR
+ -t 15.064168947 -s 0 -d -1 -p DSR -e 32 -c 2 -a 0 -i 3 -k RTR 
- -t 15.064168947 -s 0 -d -1 -p DSR -e 32 -c 2 -a 0 -i 3 -k RTR
h -t 15.064168947 -s 0 -d -1 -p DSR -e 32 -c 2 -a 0 -i 3 -k RTR
+ -t 15.064984693 -s 0 -d -1 -p cbr -e 512 -c 2 -a 0 -i 4 -k AGT 
- -t 15.064984693 -s 0 -d -1 -p cbr -e 512 -c 2 -a 0 -i 4 -k AGT
h -t 15.064984693 -s 0 -d -1 -p cbr -e 512 -c 2 -a 0 -i 4 -k AGT
+ -t 15.066289343 -s 3 -d -1 -p DSR -e 48 -c 2 -a 0 -i 3 -k RTR 
- -t 15.066289343 -s 3 -d -1 -p DSR -e 48 -c 2 -a 0 -i 3 -k RTR
h -t 15.066289343 -s 3 -d -1 -p DSR -e 48 -c 2 -a 0 -i 3 -k RTR
+ -t 15.068130730 -s 4 -d -1 -p DSR -e 48 -c 2 -a 0 -i 3 -k RTR 
- -t 15.068130730 -s 4 -d -1 -p DSR -e 48 -c 2 -a 0 -i 3 -k RTR
h -t 15.068130730 -s 4 -d -1 -p DSR -e 48 -c 2 -a 0 -i 3 -k RTR
+ -t 15.070109915 -s 22 -d -1 -p DSR -e 68 -c 2 -a 0 -i 3 -k RTR 
- -t 15.070109915 -s 22 -d -1 -p DSR -e 68 -c 2 -a 0 -i 3 -k RTR
h -t 15.070109915 -s 22 -d -1 -p DSR -e 68 -c 2 -a 0 -i 3 -k RTR
+ -t 15.070839457 -s 10 -d -1 -p DSR -e 68 -c 2 -a 0 -i 3 -k RTR 
- -t 15.070839457 -s 10 -d -1 -p DSR -e 68 -c 2 -a 0 -i 3 -k RTR
h -t 15.070839457 -s 10 -d -1 -p DSR -e 68 -c 2 -a 0 -i 3 -k RTR
+ -t 15.071851354 -s 21 -d -1 -p DSR -e 92 -c 2 -a 0 -i 3 -k RTR 
- -t 15.071851354 -s 21 -d -1 -p DSR -e 92 -c 2 -a 0 -i 3 -k RTR
h -t 15.071851354 -s 21 -d -1 -p DSR -e 92 -c 2 -a 0 -i 3 -k RTR
+ -t 15.071934385 -s 8 -d -1 -p DSR -e 68 -c 2 -a 0 -i 3 -k RTR 
- -t 15.071934385 -s 8 -d -1 -p DSR -e 68 -c 2 -a 0 -i 3 -k RTR
h -t 15.071934385 -s 8 -d -1 -p DSR -e 68 -c 2 -a 0 -i 3 -k RTR
+ -t 15.072567054 -s 1 -d -1 -p DSR -e 48 -c 2 -a 0 -i 3 -k RTR 
- -t 15.072567054 -s 1 -d -1 -p DSR -e 48 -c 2 -a 0 -i 3 -k RTR
h -t 15.072567054 -s 1 -d -1 -p DSR -e 48 -c 2 -a 0 -i 3 -k RTR
+ -t 15.072866975 -s 5 -d -1 -p DSR -e 68 -c 2 -a 0 -i 3 -k RTR 
- -t 15.072866975 -s 5 -d -1 -p DSR -e 68 -c 2 -a 0 -i 3 -k RTR
h -t 15.072866975 -s 5 -d -1 -p DSR -e 68 -c 2 -a 0 -i 3 -k RTR
+ -t 15.072891008 -s 7 -d -1 -p DSR -e 68 -c 2 -a 0 -i 3 -k RTR 
- -t 15.072891008 -s 7 -d -1 -p DSR -e 68 -c 2 -a 0 -i 3 -k RTR
h -t 15.072891008 -s 7 -d -1 -p DSR -e 68 -c 2 -a 0 -i 3 -k RTR
+ -t 15.073346702 -s 25 -d -1 -p DSR -e 48 -c 2 -a 0 -i 3 -k RTR 
- -t 15.073346702 -s 25 -d -1 -p DSR -e 48 -c 2 -a 0 -i 3 -k RTR
h -t 15.073346702 -s 25 -d -1 -p DSR -e 48 -c 2 -a 0 -i 3 -k RTR
+ -t 15.073595406 -s 6 -d -1 -p DSR -e 48 -c 2 -a 0 -i 3 -k RTR 
- -t 15.073595406 -s 6 -d -1 -p DSR -e 48 -c 2 -a 0 -i 3 -k RTR
h -t 15.073595406 -s 6 -d -1 -p DSR -e 48 -c 2 -a 0 -i 3 -k RTR
+ -t 15.073838194 -s 16 -d 22 -p DSR -e 60 -c 2 -a 0 -i 6 -k RTR 
- -t 15.073838194 -s 16 -d 22 -p DSR -e 60 -c 2 -a 0 -i 6 -k RTR
h -t 15.073838194 -s 16 -d 22 -p DSR -e 60 -c 2 -a 0 -i 6 -k RTR
+ -t 15.073853092 -s 26 -d -1 -p DSR -e 68 -c 2 -a 0 -i 3 -k RTR 
- -t 15.073853092 -s 26 -d -1 -p DSR -e 68 -c 2 -a 0 -i 3 -k RTR
h -t 15.073853092 -s 26 -d -1 -p DSR -e 68 -c 2 -a 0 -i 3 -k RTR
+ -t 15.073888139 -s 19 -d -1 -p DSR -e 92 -c 2 -a 0 -i 3 -k RTR 
- -t 15.073888139 -s 19 -d -1 -p DSR -e 92 -c 2 -a 0 -i 3 -k RTR
h -t 15.073888139 -s 19 -d -1 -p DSR -e 92 -c 2 -a 0 -i 3 -k RTR
+ -t 15.074157463 -s 23 -d -1 -p DSR -e 68 -c 2 -a 0 -i 3 -k RTR 
- -t 15.074157463 -s 23 -d -1 -p DSR -e 68 -c 2 -a 0 -i 3 -k RTR
h -t 15.074157463 -s 23 -d -1 -p DSR -e 68 -c 2 -a 0 -i 3 -k RTR
+ -t 15.075475787 -s 17 -d -1 -p DSR -e 92 -c 2 -a 0 -i 3 -k RTR 
- -t 15.075475787 -s 17 -d -1 -p DSR -e 92 -c 2 -a 0 -i 3 -k RTR
h -t 15.075475787 -s 17 -d -1 -p DSR -e 92 -c 2 -a 0 -i 3 -k RTR
+ -t 15.075509178 -s 2 -d -1 -p DSR -e 68 -c 2 -a 0 -i 3 -k RTR 
- -t 15.075509178 -s 2 -d -1 -p DSR -e 68 -c 2 -a 0 -i 3 -k RTR
h -t 15.075509178 -s 2 -d -1 -p DSR -e 68 -c 2 -a 0 -i 3 -k RTR
+ -t 15.076418081 -s 9 -d -1 -p DSR -e 68 -c 2 -a 0 -i 3 -k RTR 
- -t 15.076418081 -s 9 -d -1 -p DSR -e 68 -c 2 -a 0 -i 3 -k RTR
h -t 15.076418081 -s 9 -d -1 -p DSR -e 68 -c 2 -a 0 -i 3 -k RTR
+ -t 15.076947872 -s 16 -d 23 -p DSR -e 60 -c 2 -a 0 -i 9 -k RTR 
- -t 15.076947872 -s 16 -d 23 -p DSR -e 60 -c 2 -a 0 -i 9 -k RTR
h -t 15.076947872 -s 16 -d 23 -p DSR -e 60 -c 2 -a 0 -i 9 -k RTR
+ -t 15.077799757 -s 24 -d -1 -p DSR -e 68 -c 2 -a 0 -i 3 -k RTR 
- -t 15.077799757 -s 24 -d -1 -p DSR -e 68 -c 2 -a 0 -i 3 -k RTR
h -t 15.077799757 -s 24 -d -1 -p DSR -e 68 -c 2 -a 0 -i 3 -k RTR
+ -t 15.077930041 -s 13 -d -1 -p DSR -e 92 -c 2 -a 0 -i 3 -k RTR 
- -t 15.077930041 -s 13 -d -1 -p DSR -e 92 -c 2 -a 0 -i 3 -k RTR
h -t 15.077930041 -s 13 -d -1 -p DSR -e 92 -c 2 -a 0 -i 3 -k RTR
+ -t 15.077947079 -s 14 -d -1 -p DSR -e 92 -c 2 -a 0 -i 3 -k RTR 
- -t 15.077947079 -s 14 -d -1 -p DSR -e 92 -c 2 -a 0 -i 3 -k RTR
h -t 15.077947079 -s 14 -d -1 -p DSR -e 92 -c 2 -a 0 -i 3 -k RTR
+ -t 15.079896817 -s 16 -d 10 -p DSR -e 60 -c 2 -a 0 -i 7 -k RTR 
- -t 15.079896817 -s 16 -d 10 -p DSR -e 60 -c 2 -a 0 -i 7 -k RTR
h -t 15.079896817 -s 16 -d 10 -p DSR -e 60 -c 2 -a 0 -i 7 -k RTR
+ -t 15.080299975 -s 16 -d 21 -p DSR -e 68 -c 2 -a 0 -i 8 -k RTR 
- -t 15.080299975 -s 16 -d 21 -p DSR -e 68 -c 2 -a 0 -i 8 -k RTR
h -t 15.080299975 -s 16 -d 21 -p DSR -e 68 -c 2 -a 0 -i 8 -k RTR
+ -t 15.080379544 -s 18 -d -1 -p DSR -e 92 -c 2 -a 0 -i 3 -k RTR 
- -t 15.080379544 -s 18 -d -1 -p DSR -e 92 -c 2 -a 0 -i 3 -k RTR
h -t 15.080379544 -s 18 -d -1 -p DSR -e 92 -c 2 -a 0 -i 3 -k RTR
+ -t 15.080526923 -s 20 -d -1 -p DSR -e 92 -c 2 -a 0 -i 3 -k RTR 
- -t 15.080526923 -s 20 -d -1 -p DSR -e 92 -c 2 -a 0 -i 3 -k RTR
h -t 15.080526923 -s 20 -d -1 -p DSR -e 92 -c 2 -a 0 -i 3 -k RTR
+ -t 15.081541417 -s 11 -d -1 -p DSR -e 92 -c 2 -a 0 -i 3 -k RTR 
- -t 15.081541417 -s 11 -d -1 -p DSR -e 92 -c 2 -a 0 -i 3 -k RTR
h -t 15.081541417 -s 11 -d -1 -p DSR -e 92 -c 2 -a 0 -i 3 -k RTR
+ -t 15.081573704 -s 12 -d -1 -p DSR -e 92 -c 2 -a 0 -i 3 -k RTR 
- -t 15.081573704 -s 12 -d -1 -p DSR -e 92 -c 2 -a 0 -i 3 -k RTR
h -t 15.081573704 -s 12 -d -1 -p DSR -e 92 -c 2 -a 0 -i 3 -k RTR
+ -t 15.082091729 -s 15 -d -1 -p DSR -e 120 -c 2 -a 0 -i 3 -k RTR 
- -t 15.082091729 -s 15 -d -1 -p DSR -e 120 -c 2 -a 0 -i 3 -k RTR
h -t 15.082091729 -s 15 -d -1 -p DSR -e 120 -c 2 -a 0 -i 3 -k RTR
+ -t 15.085885517 -s 16 -d 19 -p DSR -e 68 -c 2 -a 0 -i 11 -k RTR 
- -t 15.085885517 -s 16 -d 19 -p DSR -e 68 -c 2 -a 0 -i 11 -k RTR
h -t 15.085885517 -s 16 -d 19 -p DSR -e 68 -c 2 -a 0 -i 11 -k RTR
+ -t 15.086128521 -s 16 -d 12 -p DSR -e 68 -c 2 -a 0 -i 12 -k RTR 
- -t 15.086128521 -s 16 -d 12 -p DSR -e 68 -c 2 -a 0 -i 12 -k RTR
h -t 15.086128521 -s 16 -d 12 -p DSR -e 68 -c 2 -a 0 -i 12 -k RTR
+ -t 15.087008453 -s 16 -d 13 -p DSR -e 68 -c 2 -a 0 -i 10 -k RTR 
- -t 15.087008453 -s 16 -d 13 -p DSR -e 68 -c 2 -a 0 -i 10 -k RTR
h -t 15.087008453 -s 16 -d 13 -p DSR -e 68 -c 2 -a 0 -i 10 -k RTR
+ -t 15.088890685 -s 22 -d 4 -p DSR -e 60 -c 2 -a 0 -i 6 -k RTR 
- -t 15.088890685 -s 22 -d 4 -p DSR -e 60 -c 2 -a 0 -i 6 -k RTR
h -t 15.088890685 -s 22 -d 4 -p DSR -e 60 -c 2 -a 0 -i 6 -k RTR
+ -t 15.090828921 -s 4 -d 0 -p DSR -e 60 -c 2 -a 0 -i 6 -k RTR 
- -t 15.090828921 -s 4 -d 0 -p DSR -e 60 -c 2 -a 0 -i 6 -k RTR
h -t 15.090828921 -s 4 -d 0 -p DSR -e 60 -c 2 -a 0 -i 6 -k RTR
+ -t 15.092837477 -s 16 -d 14 -p DSR -e 68 -c 2 -a 0 -i 13 -k RTR 
- -t 15.092837477 -s 16 -d 14 -p DSR -e 68 -c 2 -a 0 -i 13 -k RTR
h -t 15.092837477 -s 16 -d 14 -p DSR -e 68 -c 2 -a 0 -i 13 -k RTR
+ -t 15.095186079 -s 13 -d 22 -p DSR -e 68 -c 2 -a 0 -i 10 -k RTR 
- -t 15.095186079 -s 13 -d 22 -p DSR -e 68 -c 2 -a 0 -i 10 -k RTR
h -t 15.095186079 -s 13 -d 22 -p DSR -e 68 -c 2 -a 0 -i 10 -k RTR
+ -t 15.098529237 -s 16 -d 18 -p DSR -e 68 -c 2 -a 0 -i 14 -k RTR 
- -t 15.098529237 -s 16 -d 18 -p DSR -e 68 -c 2 -a 0 -i 14 -k RTR
h -t 15.098529237 -s 16 -d 18 -p DSR -e 68 -c 2 -a 0 -i 14 -k RTR
+ -t 15.099427719 -s 16 -d 20 -p DSR -e 68 -c 2 -a 0 -i 15 -k RTR 
- -t 15.099427719 -s 16 -d 20 -p DSR -e 68 -c 2 -a 0 -i 15 -k RTR
h -t 15.099427719 -s 16 -d 20 -p DSR -e 68 -c 2 -a 0 -i 15 -k RTR
+ -t 15.101750669 -s 0 -d 4 -p cbr -e 556 -c 2 -a 0 -i 0 -k RTR 
- -t 15.101750669 -s 0 -d 4 -p cbr -e 556 -c 2 -a 0 -i 0 -k RTR
h -t 15.101750669 -s 0 -d 4 -p cbr -e 556 -c 2 -a 0 -i 0 -k RTR
+ -t 15.103408949 -s 0 -d -1 -p cbr -e 512 -c 2 -a 0 -i 16 -k AGT 
- -t 15.103408949 -s 0 -d -1 -p cbr -e 512 -c 2 -a 0 -i 16 -k AGT
h -t 15.103408949 -s 0 -d -1 -p cbr -e 512 -c 2 -a 0 -i 16 -k AGT
+ -t 15.103408949 -s 0 -d 4 -p cbr -e 556 -c 2 -a 0 -i 16 -k RTR 
- -t 15.103408949 -s 0 -d 4 -p cbr -e 556 -c 2 -a 0 -i 16 -k RTR
h -t 15.103408949 -s 0 -d 4 -p cbr -e 556 -c 2 -a 0 -i 16 -k RTR
+ -t 15.104247325 -s 16 -d 17 -p DSR -e 68 -c 2 -a 0 -i 17 -k RTR 
- -t 15.104247325 -s 16 -d 17 -p DSR -e 68 -c 2 -a 0 -i 17 -k RTR
h -t 15.104247325 -s 16 -d 17 -p DSR -e 68 -c 2 -a 0 -i 17 -k RTR
+ -t 15.109136905 -s 4 -d 22 -p cbr -e 556 -c 2 -a 0 -i 0 -k RTR 
- -t 15.109136905 -s 4 -d 22 -p cbr -e 556 -c 2 -a 0 -i 0 -k RTR
h -t 15.109136905 -s 4 -d 22 -p cbr -e 556 -c 2 -a 0 -i 0 -k RTR
+ -t 15.115043887 -s 4 -d 22 -p cbr -e 556 -c 2 -a 0 -i 16 -k RTR 
- -t 15.115043887 -s 4 -d 22 -p cbr -e 556 -c 2 -a 0 -i 16 -k RTR
h -t 15.115043887 -s 4 -d 22 -p cbr -e 556 -c 2 -a 0 -i 16 -k RTR
+ -t 15.122371051 -s 22 -d 16 -p cbr -e 556 -c 2 -a 0 -i 0 -k RTR 
- -t 15.122371051 -s 22 -d 16 -p cbr -e 556 -c 2 -a 0 -i 0 -k RTR
h -t 15.122371051 -s 22 -d 16 -p cbr -e 556 -c 2 -a 0 -i 0 -k RTR
+ -t 15.124462720 -s 22 -d 4 -p DSR -e 68 -c 2 -a 0 -i 10 -k RTR 
- -t 15.124462720 -s 22 -d 4 -p DSR -e 68 -c 2 -a 0 -i 10 -k RTR
h -t 15.124462720 -s 22 -d 4 -p DSR -e 68 -c 2 -a 0 -i 10 -k RTR
+ -t 15.126685701 -s 14 -d 22 -p DSR -e 68 -c 2 -a 0 -i 13 -k RTR 
- -t 15.126685701 -s 14 -d 22 -p DSR -e 68 -c 2 -a 0 -i 13 -k RTR
h -t 15.126685701 -s 14 -d 22 -p DSR -e 68 -c 2 -a 0 -i 13 -k RTR
+ -t 15.128808447 -s 17 -d 22 -p DSR -e 68 -c 2 -a 0 -i 17 -k RTR 
- -t 15.128808447 -s 17 -d 22 -p DSR -e 68 -c 2 -a 0 -i 17 -k RTR
h -t 15.128808447 -s 17 -d 22 -p DSR -e 68 -c 2 -a 0 -i 17 -k RTR
+ -t 15.131750669 -s 0 -d 4 -p cbr -e 556 -c 2 -a 0 -i 4 -k RTR 
- -t 15.131750669 -s 0 -d 4 -p cbr -e 556 -c 2 -a 0 -i 4 -k RTR
h -t 15.131750669 -s 0 -d 4 -p cbr -e 556 -c 2 -a 0 -i 4 -k RTR
r -t 15.134775428 -s 16 -d 16 -p cbr -e 512 -c 2 -a 0 -i 0 -k AGT
+ -t 15.137017588 -s 22 -d 4 -p DSR -e 68 -c 2 -a 0 -i 13 -k RTR 
- -t 15.137017588 -s 22 -d 4 -p DSR -e 68 -c 2 -a 0 -i 13 -k RTR
h -t 15.137017588 -s 22 -d 4 -p DSR -e 68 -c 2 -a 0 -i 13 -k RTR
+ -t 15.140180569 -s 22 -d 4 -p DSR -e 68 -c 2 -a 0 -i 17 -k RTR 
- -t 15.140180569 -s 22 -d 4 -p DSR -e 68 -c 2 -a 0 -i 17 -k RTR
h -t 15.140180569 -s 22 -d 4 -p DSR -e 68 -c 2 -a 0 -i 17 -k RTR
+ -t 15.142222729 -s 20 -d 22 -p DSR -e 68 -c 2 -a 0 -i 15 -k RTR 
- -t 15.142222729 -s 20 -d 22 -p DSR -e 68 -c 2 -a 0 -i 15 -k RTR
h -t 15.142222729 -s 20 -d 22 -p DSR -e 68 -c 2 -a 0 -i 15 -k RTR
+ -t 15.144325298 -s 4 -d 0 -p DSR -e 68 -c 2 -a 0 -i 10 -k RTR 
- -t 15.144325298 -s 4 -d 0 -p DSR -e 68 -c 2 -a 0 -i 10 -k RTR
h -t 15.144325298 -s 4 -d 0 -p DSR -e 68 -c 2 -a 0 -i 10 -k RTR
+ -t 15.150491534 -s 22 -d 16 -p cbr -e 556 -c 2 -a 0 -i 16 -k RTR 
- -t 15.150491534 -s 22 -d 16 -p cbr -e 556 -c 2 -a 0 -i 16 -k RTR
h -t 15.150491534 -s 22 -d 16 -p cbr -e 556 -c 2 -a 0 -i 16 -k RTR
+ -t 15.154981310 -s 18 -d 22 -p DSR -e 68 -c 2 -a 0 -i 14 -k RTR 
- -t 15.154981310 -s 18 -d 22 -p DSR -e 68 -c 2 -a 0 -i 14 -k RTR
h -t 15.154981310 -s 18 -d 22 -p DSR -e 68 -c 2 -a 0 -i 14 -k RTR
+ -t 15.157003880 -s 12 -d 10 -p DSR -e 68 -c 2 -a 0 -i 12 -k RTR 
- -t 15.157003880 -s 12 -d 10 -p DSR -e 68 -c 2 -a 0 -i 12 -k RTR
h -t 15.157003880 -s 12 -d 10 -p DSR -e 68 -c 2 -a 0 -i 12 -k RTR
+ -t 15.159470934 -s 22 -d 4 -p DSR -e 68 -c 2 -a 0 -i 14 -k RTR 
- -t 15.159470934 -s 22 -d 4 -p DSR -e 68 -c 2 -a 0 -i 14 -k RTR
h -t 15.159470934 -s 22 -d 4 -p DSR -e 68 -c 2 -a 0 -i 14 -k RTR
+ -t 15.160333821 -s 0 -d -1 -p cbr -e 512 -c 2 -a 0 -i 18 -k AGT 
- -t 15.160333821 -s 0 -d -1 -p cbr -e 512 -c 2 -a 0 -i 18 -k AGT
h -t 15.160333821 -s 0 -d -1 -p cbr -e 512 -c 2 -a 0 -i 18 -k AGT
+ -t 15.160333821 -s 0 -d 4 -p cbr -e 532 -c 2 -a 0 -i 18 -k RTR 
- -t 15.160333821 -s 0 -d 4 -p cbr -e 532 -c 2 -a 0 -i 18 -k RTR
h -t 15.160333821 -s 0 -d 4 -p cbr -e 532 -c 2 -a 0 -i 18 -k RTR
+ -t 15.161573170 -s 4 -d 0 -p DSR -e 68 -c 2 -a 0 -i 17 -k RTR 
- -t 15.161573170 -s 4 -d 0 -p DSR -e 68 -c 2 -a 0 -i 17 -k RTR
h -t 15.161573170 -s 4 -d 0 -p DSR -e 68 -c 2 -a 0 -i 17 -k RTR
+ -t 15.163736151 -s 4 -d 0 -p DSR -e 68 -c 2 -a 0 -i 14 -k RTR 
- -t 15.163736151 -s 4 -d 0 -p DSR -e 68 -c 2 -a 0 -i 14 -k RTR
h -t 15.163736151 -s 4 -d 0 -p DSR -e 68 -c 2 -a 0 -i 14 -k RTR
+ -t 15.170688164 -s 19 -d 10 -p DSR -e 68 -c 2 -a 0 -i 11 -k RTR 
- -t 15.170688164 -s 19 -d 10 -p DSR -e 68 -c 2 -a 0 -i 11 -k RTR
h -t 15.170688164 -s 19 -d 10 -p DSR -e 68 -c 2 -a 0 -i 11 -k RTR
+ -t 15.172710871 -s 10 -d 4 -p DSR -e 68 -c 2 -a 0 -i 12 -k RTR 
- -t 15.172710871 -s 10 -d 4 -p DSR -e 68 -c 2 -a 0 -i 12 -k RTR
h -t 15.172710871 -s 10 -d 4 -p DSR -e 68 -c 2 -a 0 -i 12 -k RTR
+ -t 15.174842126 -s 22 -d 4 -p DSR -e 68 -c 2 -a 0 -i 15 -k RTR 
- -t 15.174842126 -s 22 -d 4 -p DSR -e 68 -c 2 -a 0 -i 15 -k RTR
h -t 15.174842126 -s 22 -d 4 -p DSR -e 68 -c 2 -a 0 -i 15 -k RTR
+ -t 15.176924362 -s 4 -d 0 -p DSR -e 68 -c 2 -a 0 -i 13 -k RTR 
- -t 15.176924362 -s 4 -d 0 -p DSR -e 68 -c 2 -a 0 -i 13 -k RTR
h -t 15.176924362 -s 4 -d 0 -p DSR -e 68 -c 2 -a 0 -i 13 -k RTR
+ -t 15.179047029 -s 4 -d 0 -p DSR -e 68 -c 2 -a 0 -i 12 -k RTR 
- -t 15.179047029 -s 4 -d 0 -p DSR -e 68 -c 2 -a 0 -i 12 -k RTR
h -t 15.179047029 -s 4 -d 0 -p DSR -e 68 -c 2 -a 0 -i 12 -k RTR
+ -t 15.186139456 -s 21 -d 22 -p DSR -e 68 -c 2 -a 0 -i 8 -k RTR 
- -t 15.186139456 -s 21 -d 22 -p DSR -e 68 -c 2 -a 0 -i 8 -k RTR
h -t 15.186139456 -s 21 -d 22 -p DSR -e 68 -c 2 -a 0 -i 8 -k RTR
+ -t 15.188222437 -s 4 -d 0 -p DSR -e 68 -c 2 -a 0 -i 15 -k RTR 
- -t 15.188222437 -s 4 -d 0 -p DSR -e 68 -c 2 -a 0 -i 15 -k RTR
h -t 15.188222437 -s 4 -d 0 -p DSR -e 68 -c 2 -a 0 -i 15 -k RTR
+ -t 15.192772284 -s 22 -d 4 -p DSR -e 68 -c 2 -a 0 -i 8 -k RTR 
- -t 15.192772284 -s 22 -d 4 -p DSR -e 68 -c 2 -a 0 -i 8 -k RTR
h -t 15.192772284 -s 22 -d 4 -p DSR -e 68 -c 2 -a 0 -i 8 -k RTR
+ -t 15.194971029 -s 10 -d 4 -p DSR -e 60 -c 2 -a 0 -i 7 -k RTR 
- -t 15.194971029 -s 10 -d 4 -p DSR -e 60 -c 2 -a 0 -i 7 -k RTR
h -t 15.194971029 -s 10 -d 4 -p DSR -e 60 -c 2 -a 0 -i 7 -k RTR
+ -t 15.197029932 -s 23 -d 3 -p DSR -e 60 -c 2 -a 0 -i 9 -k RTR 
- -t 15.197029932 -s 23 -d 3 -p DSR -e 60 -c 2 -a 0 -i 9 -k RTR
h -t 15.197029932 -s 23 -d 3 -p DSR -e 60 -c 2 -a 0 -i 9 -k RTR
r -t 15.202976834 -s 16 -d 16 -p cbr -e 512 -c 2 -a 0 -i 16 -k AGT
+ -t 15.204979816 -s 4 -d 0 -p DSR -e 68 -c 2 -a 0 -i 8 -k RTR 
- -t 15.204979816 -s 4 -d 0 -p DSR -e 68 -c 2 -a 0 -i 8 -k RTR
h -t 15.204979816 -s 4 -d 0 -p DSR -e 68 -c 2 -a 0 -i 8 -k RTR
+ -t 15.209469988 -s 10 -d 4 -p DSR -e 68 -c 2 -a 0 -i 11 -k RTR 
- -t 15.209469988 -s 10 -d 4 -p DSR -e 68 -c 2 -a 0 -i 11 -k RTR
h -t 15.209469988 -s 10 -d 4 -p DSR -e 68 -c 2 -a 0 -i 11 -k RTR
+ -t 15.211488557 -s 3 -d 0 -p DSR -e 60 -c 2 -a 0 -i 9 -k RTR 
- -t 15.211488557 -s 3 -d 0 -p DSR -e 60 -c 2 -a 0 -i 9 -k RTR
h -t 15.211488557 -s 3 -d 0 -p DSR -e 60 -c 2 -a 0 -i 9 -k RTR
+ -t 15.215808759 -s 4 -d 0 -p DSR -e 60 -c 2 -a 0 -i 7 -k RTR 
- -t 15.215808759 -s 4 -d 0 -p DSR -e 60 -c 2 -a 0 -i 7 -k RTR
h -t 15.215808759 -s 4 -d 0 -p DSR -e 60 -c 2 -a 0 -i 7 -k RTR
+ -t 15.220574197 -s 4 -d 0 -p DSR -e 68 -c 2 -a 0 -i 11 -k RTR 
- -t 15.220574197 -s 4 -d 0 -p DSR -e 68 -c 2 -a 0 -i 11 -k RTR
h -t 15.220574197 -s 4 -d 0 -p DSR -e 68 -c 2 -a 0 -i 11 -k RTR
+ -t 15.223310321 -s 0 -d -1 -p cbr -e 512 -c 2 -a 0 -i 19 -k AGT 
- -t 15.223310321 -s 0 -d -1 -p cbr -e 512 -c 2 -a 0 -i 19 -k AGT
h -t 15.223310321 -s 0 -d -1 -p cbr -e 512 -c 2 -a 0 -i 19 -k AGT
+ -t 15.223310321 -s 0 -d 4 -p cbr -e 532 -c 2 -a 0 -i 19 -k RTR 
- -t 15.223310321 -s 0 -d 4 -p cbr -e 532 -c 2 -a 0 -i 19 -k RTR
h -t 15.223310321 -s 0 -d 4 -p cbr -e 532 -c 2 -a 0 -i 19 -k RTR
+ -t 15.226550968 -s 4 -d 22 -p cbr -e 556 -c 2 -a 0 -i 4 -k RTR 
- -t 15.226550968 -s 4 -d 22 -p cbr -e 556 -c 2 -a 0 -i 4 -k RTR
h -t 15.226550968 -s 4 -d 22 -p cbr -e 556 -c 2 -a 0 -i 4 -k RTR
+ -t 15.234920185 -s 22 -d 16 -p cbr -e 556 -c 2 -a 0 -i 4 -k RTR 
- -t 15.234920185 -s 22 -d 16 -p cbr -e 556 -c 2 -a 0 -i 4 -k RTR
h -t 15.234920185 -s 22 -d 16 -p cbr -e 556 -c 2 -a 0 -i 4 -k RTR
r -t 15.241226422 -s 16 -d 16 -p cbr -e 512 -c 2 -a 0 -i 4 -k AGT
+ -t 15.247386453 -s 4 -d 22 -p cbr -e 532 -c 2 -a 0 -i 18 -k RTR 
- -t 15.247386453 -s 4 -d 22 -p cbr -e 532 -c 2 -a 0 -i 18 -k RTR
h -t 15.247386453 -s 4 -d 22 -p cbr -e 532 -c 2 -a 0 -i 18 -k RTR
+ -t 15.253160689 -s 22 -d 16 -p cbr -e 532 -c 2 -a 0 -i 18 -k RTR 
- -t 15.253160689 -s 22 -d 16 -p cbr -e 532 -c 2 -a 0 -i 18 -k RTR
h -t 15.253160689 -s 22 -d 16 -p cbr -e 532 -c 2 -a 0 -i 18 -k RTR
r -t 15.258894925 -s 16 -d 16 -p cbr -e 512 -c 2 -a 0 -i 18 -k AGT
+ -t 15.265514956 -s 4 -d 22 -p cbr -e 532 -c 2 -a 0 -i 19 -k RTR 
- -t 15.265514956 -s 4 -d 22 -p cbr -e 532 -c 2 -a 0 -i 19 -k RTR
h -t 15.265514956 -s 4 -d 22 -p cbr -e 532 -c 2 -a 0 -i 19 -k RTR
+ -t 15.266501828 -s 0 -d -1 -p cbr -e 512 -c 2 -a 0 -i 20 -k AGT 
- -t 15.266501828 -s 0 -d -1 -p cbr -e 512 -c 2 -a 0 -i 20 -k AGT
h -t 15.266501828 -s 0 -d -1 -p cbr -e 512 -c 2 -a 0 -i 20 -k AGT
+ -t 15.266501828 -s 0 -d 4 -p cbr -e 532 -c 2 -a 0 -i 20 -k RTR 
- -t 15.266501828 -s 0 -d 4 -p cbr -e 532 -c 2 -a 0 -i 20 -k RTR
h -t 15.266501828 -s 0 -d 4 -p cbr -e 532 -c 2 -a 0 -i 20 -k RTR
+ -t 15.271249192 -s 22 -d 16 -p cbr -e 532 -c 2 -a 0 -i 19 -k RTR 
- -t 15.271249192 -s 22 -d 16 -p cbr -e 532 -c 2 -a 0 -i 19 -k RTR
h -t 15.271249192 -s 22 -d 16 -p cbr -e 532 -c 2 -a 0 -i 19 -k RTR
r -t 15.277403428 -s 16 -d 16 -p cbr -e 512 -c 2 -a 0 -i 19 -k AGT
+ -t 15.283823459 -s 4 -d 22 -p cbr -e 532 -c 2 -a 0 -i 20 -k RTR 
- -t 15.283823459 -s 4 -d 22 -p cbr -e 532 -c 2 -a 0 -i 20 -k RTR
h -t 15.283823459 -s 4 -d 22 -p cbr -e 532 -c 2 -a 0 -i 20 -k RTR
+ -t 15.290137695 -s 22 -d 16 -p cbr -e 532 -c 2 -a 0 -i 20 -k RTR 
- -t 15.290137695 -s 22 -d 16 -p cbr -e 532 -c 2 -a 0 -i 20 -k RTR
h -t 15.290137695 -s 22 -d 16 -p cbr -e 532 -c 2 -a 0 -i 20 -k RTR
r -t 15.296011931 -s 16 -d 16 -p cbr -e 512 -c 2 -a 0 -i 20 -k AGT
+ -t 15.304979842 -s 0 -d -1 -p cbr -e 512 -c 2 -a 0 -i 21 -k AGT 
- -t 15.304979842 -s 0 -d -1 -p cbr -e 512 -c 2 -a 0 -i 21 -k AGT
h -t 15.304979842 -s 0 -d -1 -p cbr -e 512 -c 2 -a 0 -i 21 -k AGT
+ -t 15.304979842 -s 0 -d 4 -p cbr -e 532 -c 2 -a 0 -i 21 -k RTR 
- -t 15.304979842 -s 0 -d 4 -p cbr -e 532 -c 2 -a 0 -i 21 -k RTR
h -t 15.304979842 -s 0 -d 4 -p cbr -e 532 -c 2 -a 0 -i 21 -k RTR
+ -t 15.310890078 -s 4 -d 22 -p cbr -e 532 -c 2 -a 0 -i 21 -k RTR 
- -t 15.310890078 -s 4 -d 22 -p cbr -e 532 -c 2 -a 0 -i 21 -k RTR
h -t 15.310890078 -s 4 -d 22 -p cbr -e 532 -c 2 -a 0 -i 21 -k RTR
+ -t 15.317064314 -s 22 -d 16 -p cbr -e 532 -c 2 -a 0 -i 21 -k RTR 
- -t 15.317064314 -s 22 -d 16 -p cbr -e 532 -c 2 -a 0 -i 21 -k RTR
h -t 15.317064314 -s 22 -d 16 -p cbr -e 532 -c 2 -a 0 -i 21 -k RTR
r -t 15.322958550 -s 16 -d 16 -p cbr -e 512 -c 2 -a 0 -i 21 -k AGT
+ -t 15.367228716 -s 0 -d -1 -p cbr -e 512 -c 2 -a 0 -i 22 -k AGT 
- -t 15.367228716 -s 0 -d -1 -p cbr -e 512 -c 2 -a 0 -i 22 -k AGT
h -t 15.367228716 -s 0 -d -1 -p cbr -e 512 -c 2 -a 0 -i 22 -k AGT
+ -t 15.367228716 -s 0 -d 4 -p cbr -e 532 -c 2 -a 0 -i 22 -k RTR 
- -t 15.367228716 -s 0 -d 4 -p cbr -e 532 -c 2 -a 0 -i 22 -k RTR
h -t 15.367228716 -s 0 -d 4 -p cbr -e 532 -c 2 -a 0 -i 22 -k RTR
+ -t 15.373018952 -s 4 -d 22 -p cbr -e 532 -c 2 -a 0 -i 22 -k RTR 
- -t 15.373018952 -s 4 -d 22 -p cbr -e 532 -c 2 -a 0 -i 22 -k RTR
h -t 15.373018952 -s 4 -d 22 -p cbr -e 532 -c 2 -a 0 -i 22 -k RTR
+ -t 15.378993188 -s 22 -d 16 -p cbr -e 532 -c 2 -a 0 -i 22 -k RTR 
- -t 15.378993188 -s 22 -d 16 -p cbr -e 532 -c 2 -a 0 -i 22 -k RTR
h -t 15.378993188 -s 22 -d 16 -p cbr -e 532 -c 2 -a 0 -i 22 -k RTR
r -t 15.384867424 -s 16 -d 16 -p cbr -e 512 -c 2 -a 0 -i 22 -k AGT
+ -t 15.414470252 -s 0 -d -1 -p cbr -e 512 -c 2 -a 0 -i 23 -k AGT 
- -t 15.414470252 -s 0 -d -1 -p cbr -e 512 -c 2 -a 0 -i 23 -k AGT
h -t 15.414470252 -s 0 -d -1 -p cbr -e 512 -c 2 -a 0 -i 23 -k AGT
+ -t 15.414470252 -s 0 -d 4 -p cbr -e 532 -c 2 -a 0 -i 23 -k RTR 
- -t 15.414470252 -s 0 -d 4 -p cbr -e 532 -c 2 -a 0 -i 23 -k RTR
h -t 15.414470252 -s 0 -d 4 -p cbr -e 532 -c 2 -a 0 -i 23 -k RTR
+ -t 15.420320488 -s 4 -d 22 -p cbr -e 532 -c 2 -a 0 -i 23 -k RTR 
- -t 15.420320488 -s 4 -d 22 -p cbr -e 532 -c 2 -a 0 -i 23 -k RTR
h -t 15.420320488 -s 4 -d 22 -p cbr -e 532 -c 2 -a 0 -i 23 -k RTR
+ -t 15.426434724 -s 22 -d 16 -p cbr -e 532 -c 2 -a 0 -i 23 -k RTR 
- -t 15.426434724 -s 22 -d 16 -p cbr -e 532 -c 2 -a 0 -i 23 -k RTR
h -t 15.426434724 -s 22 -d 16 -p cbr -e 532 -c 2 -a 0 -i 23 -k RTR
r -t 15.432168960 -s 16 -d 16 -p cbr -e 512 -c 2 -a 0 -i 23 -k AGT
+ -t 15.466336415 -s 0 -d -1 -p cbr -e 512 -c 2 -a 0 -i 24 -k AGT 
- -t 15.466336415 -s 0 -d -1 -p cbr -e 512 -c 2 -a 0 -i 24 -k AGT
h -t 15.466336415 -s 0 -d -1 -p cbr -e 512 -c 2 -a 0 -i 24 -k AGT
+ -t 15.466336415 -s 0 -d 4 -p cbr -e 532 -c 2 -a 0 -i 24 -k RTR 
- -t 15.466336415 -s 0 -d 4 -p cbr -e 532 -c 2 -a 0 -i 24 -k RTR
h -t 15.466336415 -s 0 -d 4 -p cbr -e 532 -c 2 -a 0 -i 24 -k RTR
+ -t 15.472086651 -s 4 -d 22 -p cbr -e 532 -c 2 -a 0 -i 24 -k RTR 
- -t 15.472086651 -s 4 -d 22 -p cbr -e 532 -c 2 -a 0 -i 24 -k RTR
h -t 15.472086651 -s 4 -d 22 -p cbr -e 532 -c 2 -a 0 -i 24 -k RTR
+ -t 15.478200887 -s 22 -d 16 -p cbr -e 532 -c 2 -a 0 -i 24 -k RTR 
- -t 15.478200887 -s 22 -d 16 -p cbr -e 532 -c 2 -a 0 -i 24 -k RTR
h -t 15.478200887 -s 22 -d 16 -p cbr -e 532 -c 2 -a 0 -i 24 -k RTR
r -t 15.484475124 -s 16 -d 16 -p cbr -e 512 -c 2 -a 0 -i 24 -k AGT
+ -t 15.534615532 -s 0 -d -1 -p cbr -e 512 -c 2 -a 0 -i 25 -k AGT 
- -t 15.534615532 -s 0 -d -1 -p cbr -e 512 -c 2 -a 0 -i 25 -k AGT
h -t 15.534615532 -s 0 -d -1 -p cbr -e 512 -c 2 -a 0 -i 25 -k AGT
+ -t 15.534615532 -s 0 -d 4 -p cbr -e 532 -c 2 -a 0 -i 25 -k RTR 
- -t 15.534615532 -s 0 -d 4 -p cbr -e 532 -c 2 -a 0 -i 25 -k RTR
h -t 15.534615532 -s 0 -d 4 -p cbr -e 532 -c 2 -a 0 -i 25 -k RTR
+ -t 15.540085768 -s 4 -d 22 -p cbr -e 532 -c 2 -a 0 -i 25 -k RTR 
- -t 15.540085768 -s 4 -d 22 -p cbr -e 532 -c 2 -a 0 -i 25 -k RTR
h -t 15.540085768 -s 4 -d 22 -p cbr -e 532 -c 2 -a 0 -i 25 -k RTR
+ -t 15.545880004 -s 22 -d 16 -p cbr -e 532 -c 2 -a 0 -i 25 -k RTR 
- -t 15.545880004 -s 22 -d 16 -p cbr -e 532 -c 2 -a 0 -i 25 -k RTR
h -t 15.545880004 -s 22 -d 16 -p cbr -e 532 -c 2 -a 0 -i 25 -k RTR
r -t 15.551754240 -s 16 -d 16 -p cbr -e 512 -c 2 -a 0 -i 25 -k AGT
+ -t 15.570129052 -s 0 -d -1 -p cbr -e 512 -c 2 -a 0 -i 26 -k AGT 
- -t 15.570129052 -s 0 -d -1 -p cbr -e 512 -c 2 -a 0 -i 26 -k AGT
h -t 15.570129052 -s 0 -d -1 -p cbr -e 512 -c 2 -a 0 -i 26 -k AGT
+ -t 15.570129052 -s 0 -d 4 -p cbr -e 532 -c 2 -a 0 -i 26 -k RTR 
- -t 15.570129052 -s 0 -d 4 -p cbr -e 532 -c 2 -a 0 -i 26 -k RTR
h -t 15.570129052 -s 0 -d 4 -p cbr -e 532 -c 2 -a 0 -i 26 -k RTR
+ -t 15.575819288 -s 4 -d 22 -p cbr -e 532 -c 2 -a 0 -i 26 -k RTR 
- -t 15.575819288 -s 4 -d 22 -p cbr -e 532 -c 2 -a 0 -i 26 -k RTR
h -t 15.575819288 -s 4 -d 22 -p cbr -e 532 -c 2 -a 0 -i 26 -k RTR
+ -t 15.581973524 -s 22 -d 16 -p cbr -e 532 -c 2 -a 0 -i 26 -k RTR 
- -t 15.581973524 -s 22 -d 16 -p cbr -e 532 -c 2 -a 0 -i 26 -k RTR
h -t 15.581973524 -s 22 -d 16 -p cbr -e 532 -c 2 -a 0 -i 26 -k RTR
r -t 15.588107760 -s 16 -d 16 -p cbr -e 512 -c 2 -a 0 -i 26 -k AGT
+ -t 15.612231911 -s 0 -d -1 -p cbr -e 512 -c 2 -a 0 -i 27 -k AGT 
- -t 15.612231911 -s 0 -d -1 -p cbr -e 512 -c 2 -a 0 -i 27 -k AGT
h -t 15.612231911 -s 0 -d -1 -p cbr -e 512 -c 2 -a 0 -i 27 -k AGT
+ -t 15.612231911 -s 0 -d 4 -p cbr -e 532 -c 2 -a 0 -i 27 -k RTR 
- -t 15.612231911 -s 0 -d 4 -p cbr -e 532 -c 2 -a 0 -i 27 -k RTR
h -t 15.612231911 -s 0 -d 4 -p cbr -e 532 -c 2 -a 0 -i 27 -k RTR
+ -t 15.617982147 -s 4 -d 22 -p cbr -e 532 -c 2 -a 0 -i 27 -k RTR 
- -t 15.617982147 -s 4 -d 22 -p cbr -e 532 -c 2 -a 0 -i 27 -k RTR
h -t 15.617982147 -s 4 -d 22 -p cbr -e 532 -c 2 -a 0 -i 27 -k RTR
+ -t 15.623776383 -s 22 -d 16 -p cbr -e 532 -c 2 -a 0 -i 27 -k RTR 
- -t 15.623776383 -s 22 -d 16 -p cbr -e 532 -c 2 -a 0 -i 27 -k RTR
h -t 15.623776383 -s 22 -d 16 -p cbr -e 532 -c 2 -a 0 -i 27 -k RTR
r -t 15.630030619 -s 16 -d 16 -p cbr -e 512 -c 2 -a 0 -i 27 -k AGT
+ -t 15.685071982 -s 0 -d -1 -p cbr -e 512 -c 2 -a 0 -i 28 -k AGT 
- -t 15.685071982 -s 0 -d -1 -p cbr -e 512 -c 2 -a 0 -i 28 -k AGT
h -t 15.685071982 -s 0 -d -1 -p cbr -e 512 -c 2 -a 0 -i 28 -k AGT
+ -t 15.685071982 -s 0 -d 4 -p cbr -e 532 -c 2 -a 0 -i 28 -k RTR 
- -t 15.685071982 -s 0 -d 4 -p cbr -e 532 -c 2 -a 0 -i 28 -k RTR
h -t 15.685071982 -s 0 -d 4 -p cbr -e 532 -c 2 -a 0 -i 28 -k RTR
+ -t 15.691082218 -s 4 -d 22 -p cbr -e 532 -c 2 -a 0 -i 28 -k RTR 
- -t 15.691082218 -s 4 -d 22 -p cbr -e 532 -c 2 -a 0 -i 28 -k RTR
h -t 15.691082218 -s 4 -d 22 -p cbr -e 532 -c 2 -a 0 -i 28 -k RTR
+ -t 15.696816454 -s 22 -d 16 -p cbr -e 532 -c 2 -a 0 -i 28 -k RTR 
- -t 15.696816454 -s 22 -d 16 -p cbr -e 532 -c 2 -a 0 -i 28 -k RTR
h -t 15.696816454 -s 22 -d 16 -p cbr -e 532 -c 2 -a 0 -i 28 -k RTR
r -t 15.703110691 -s 16 -d 16 -p cbr -e 512 -c 2 -a 0 -i 28 -k AGT
+ -t 15.734778696 -s 0 -d -1 -p cbr -e 512 -c 2 -a 0 -i 29 -k AGT 
- -t 15.734778696 -s 0 -d -1 -p cbr -e 512 -c 2 -a 0 -i 29 -k AGT
h -t 15.734778696 -s 0 -d -1 -p cbr -e 512 -c 2 -a 0 -i 29 -k AGT
+ -t 15.734778696 -s 0 -d 4 -p cbr -e 532 -c 2 -a 0 -i 29 -k RTR 
- -t 15.734778696 -s 0 -d 4 -p cbr -e 532 -c 2 -a 0 -i 29 -k RTR
h -t 15.734778696 -s 0 -d 4 -p cbr -e 532 -c 2 -a 0 -i 29 -k RTR
+ -t 15.740388932 -s 4 -d 22 -p cbr -e 532 -c 2 -a 0 -i 29 -k RTR 
- -t 15.740388932 -s 4 -d 22 -p cbr -e 532 -c 2 -a 0 -i 29 -k RTR
h -t 15.740388932 -s 4 -d 22 -p cbr -e 532 -c 2 -a 0 -i 29 -k RTR
+ -t 15.746323168 -s 22 -d 16 -p cbr -e 532 -c 2 -a 0 -i 29 -k RTR 
- -t 15.746323168 -s 22 -d 16 -p cbr -e 532 -c 2 -a 0 -i 29 -k RTR
h -t 15.746323168 -s 22 -d 16 -p cbr -e 532 -c 2 -a 0 -i 29 -k RTR
r -t 15.752437404 -s 16 -d 16 -p cbr -e 512 -c 2 -a 0 -i 29 -k AGT
+ -t 15.777873820 -s 0 -d -1 -p cbr -e 512 -c 2 -a 0 -i 30 -k AGT 
- -t 15.777873820 -s 0 -d -1 -p cbr -e 512 -c 2 -a 0 -i 30 -k AGT
h -t 15.777873820 -s 0 -d -1 -p cbr -e 512 -c 2 -a 0 -i 30 -k AGT
+ -t 15.777873820 -s 0 -d 4 -p cbr -e 532 -c 2 -a 0 -i 30 -k RTR 
- -t 15.777873820 -s 0 -d 4 -p cbr -e 532 -c 2 -a 0 -i 30 -k RTR
h -t 15.777873820 -s 0 -d 4 -p cbr -e 532 -c 2 -a 0 -i 30 -k RTR
+ -t 15.783364056 -s 4 -d 22 -p cbr -e 532 -c 2 -a 0 -i 30 -k RTR 
- -t 15.783364056 -s 4 -d 22 -p cbr -e 532 -c 2 -a 0 -i 30 -k RTR
h -t 15.783364056 -s 4 -d 22 -p cbr -e 532 -c 2 -a 0 -i 30 -k RTR
+ -t 15.789078292 -s 22 -d 16 -p cbr -e 532 -c 2 -a 0 -i 30 -k RTR 
- -t 15.789078292 -s 22 -d 16 -p cbr -e 532 -c 2 -a 0 -i 30 -k RTR
h -t 15.789078292 -s 22 -d 16 -p cbr -e 532 -c 2 -a 0 -i 30 -k RTR
r -t 15.795372528 -s 16 -d 16 -p cbr -e 512 -c 2 -a 0 -i 30 -k AGT
+ -t 15.833646859 -s 0 -d -1 -p cbr -e 512 -c 2 -a 0 -i 31 -k AGT 
- -t 15.833646859 -s 0 -d -1 -p cbr -e 512 -c 2 -a 0 -i 31 -k AGT
h -t 15.833646859 -s 0 -d -1 -p cbr -e 512 -c 2 -a 0 -i 31 -k AGT
+ -t 15.833646859 -s 0 -d 4 -p cbr -e 532 -c 2 -a 0 -i 31 -k RTR 
- -t 15.833646859 -s 0 -d 4 -p cbr -e 532 -c 2 -a 0 -i 31 -k RTR
h -t 15.833646859 -s 0 -d 4 -p cbr -e 532 -c 2 -a 0 -i 31 -k RTR
+ -t 15.839397095 -s 4 -d 22 -p cbr -e 532 -c 2 -a 0 -i 31 -k RTR 
- -t 15.839397095 -s 4 -d 22 -p cbr -e 532 -c 2 -a 0 -i 31 -k RTR
h -t 15.839397095 -s 4 -d 22 -p cbr -e 532 -c 2 -a 0 -i 31 -k RTR
+ -t 15.845371331 -s 22 -d 16 -p cbr -e 532 -c 2 -a 0 -i 31 -k RTR 
- -t 15.845371331 -s 22 -d 16 -p cbr -e 532 -c 2 -a 0 -i 31 -k RTR
h -t 15.845371331 -s 22 -d 16 -p cbr -e 532 -c 2 -a 0 -i 31 -k RTR
r -t 15.851345567 -s 16 -d 16 -p cbr -e 512 -c 2 -a 0 -i 31 -k AGT
+ -t 15.899320267 -s 0 -d -1 -p cbr -e 512 -c 2 -a 0 -i 32 -k AGT 
- -t 15.899320267 -s 0 -d -1 -p cbr -e 512 -c 2 -a 0 -i 32 -k AGT
h -t 15.899320267 -s 0 -d -1 -p cbr -e 512 -c 2 -a 0 -i 32 -k AGT
+ -t 15.899320267 -s 0 -d 4 -p cbr -e 532 -c 2 -a 0 -i 32 -k RTR 
- -t 15.899320267 -s 0 -d 4 -p cbr -e 532 -c 2 -a 0 -i 32 -k RTR