Sconfig 0.00000 tap: on snoop: rts? on errs? on
Sconfig 0.00000 salvage: on !bd replies? on
Sconfig 0.00000 grat error: on grat reply: on
Sconfig 0.00000 $reply for props: on ring 0 search: on
Sconfig 0.00000 using MOBICACHE
s 15.000000000 _0_ AGT  --- 0 cbr 512 [0 0 0 0] ------- [0:0 18:0 32 0] [0] 0 0
r 15.000000000 _0_ RTR  --- 0 cbr 512 [0 0 0 0] ------- [0:0 18:0 32 0] [0] 0 0
s 15.002342658 _0_ RTR  --- 1 DSR 32 [0 0 0 0] ------- [0:255 18:255 32 0] 1 [1 1] [0 1 0 0->0] [0 0 0 0->0]
r 15.003194991 _3_ RTR  --- 1 DSR 32 [0 ffffffff 0 800] ------- [0:255 18:255 32 0] 1 [1 1] [0 1 0 0->0] [0 0 0 0->0]
r 15.003195129 _27_ RTR  --- 1 DSR 32 [0 ffffffff 0 800] ------- [0:255 18:255 32 0] 1 [1 1] [0 1 0 0->0] [0 0 0 0->0]
r 15.003195324 _6_ RTR  --- 1 DSR 32 [0 ffffffff 0 800] ------- [0:255 18:255 32 0] 1 [1 1] [0 1 0 0->0] [0 0 0 0->0]
r 15.003195324 _1_ RTR  --- 1 DSR 32 [0 ffffffff 0 800] ------- [0:255 18:255 32 0] 1 [1 1] [0 1 0 0->0] [0 0 0 0->0]
r 15.003195403 _25_ RTR  --- 1 DSR 32 [0 ffffffff 0 800] ------- [0:255 18:255 32 0] 1 [1 1] [0 1 0 0->0] [0 0 0 0->0]
r 15.003195403 _4_ RTR  --- 1 DSR 32 [0 ffffffff 0 800] ------- [0:255 18:255 32 0] 1 [1 1] [0 1 0 0->0] [0 0 0 0->0]
s 15.040106880 _0_ RTR  --- 2 DSR 32 [0 0 0 0] ------- [0:255 18:255 32 0] 1 [1 2] [0 2 0 0->16] [0 0 0 0->0]
s 15.041387545 _0_ AGT  --- 3 cbr 512 [0 0 0 0] ------- [0:0 18:0 32 0] [1] 0 0
r 15.041387545 _0_ RTR  --- 3 cbr 512 [0 0 0 0] ------- [0:0 18:0 32 0] [1] 0 0
r 15.041459213 _3_ RTR  --- 2 DSR 32 [0 ffffffff 0 800] ------- [0:255 18:255 32 0] 1 [1 2] [0 2 0 0->16] [0 0 0 0->0]
r 15.041459351 _27_ RTR  --- 2 DSR 32 [0 ffffffff 0 800] ------- [0:255 18:255 32 0] 1 [1 2] [0 2 0 0->16] [0 0 0 0->0]
r 15.041459546 _6_ RTR  --- 2 DSR 32 [0 ffffffff 0 800] ------- [0:255 18:255 32 0] 1 [1 2] [0 2 0 0->16] [0 0 0 0->0]
r 15.041459546 _1_ RTR  --- 2 DSR 32 [0 ffffffff 0 800] ------- [0:255 18:255 32 0] 1 [1 2] [0 2 0 0->16] [0 0 0 0->0]
r 15.041459625 _25_ RTR  --- 2 DSR 32 [0 ffffffff 0 800] ------- [0:255 18:255 32 0] 1 [1 2] [0 2 0 0->16] [0 0 0 0->0]
r 15.041459625 _4_ RTR  --- 2 DSR 32 [0 ffffffff 0 800] ------- [0:255 18:255 32 0] 1 [1 2] [0 2 0 0->16] [0 0 0 0->0]
f 15.042047432 _1_ RTR  --- 2 DSR 48 [0 ffffffff 0 800] ------- [0:255 18:255 32 0] 2 [1 2] [0 2 0 0->16] [0 0 0 0->0]
f 15.042460284 _6_ RTR  --- 2 DSR 48 [0 ffffffff 0 800] ------- [0:255 18:255 32 0] 2 [1 2] [0 2 0 0->16] [0 0 0 0->0]
f 15.042970754 _27_ RTR  --- 2 DSR 48 [0 ffffffff 0 800] ------- [0:255 18:255 32 0] 2 [1 2] [0 2 0 0->16] [0 0 0 0->0]
r 15.043027765 _4_ RTR  --- 2 DSR 48 [0 ffffffff 1 800] ------- [0:255 18:255 32 0] 2 [1 2] [0 2 0 0->16] [0 0 0 0->0]
r 15.043027765 _28_ RTR  --- 2 DSR 48 [0 ffffffff 1 800] ------- [0:255 18:255 32 0] 2 [1 2] [0 2 0 0->16] [0 0 0 0->0]
r 15.043027903 _27_ RTR  --- 2 DSR 48 [0 ffffffff 1 800] ------- [0:255 18:255 32 0] 2 [1 2] [0 2 0 0->16] [0 0 0 0->0]
r 15.043027903 _26_ RTR  --- 2 DSR 48 [0 ffffffff 1 800] ------- [0:255 18:255 32 0] 2 [1 2] [0 2 0 0->16] [0 0 0 0->0]
r 15.043028098 _0_ RTR  --- 2 DSR 48 [0 ffffffff 1 800] ------- [0:255 18:255 32 0] 2 [1 2] [0 2 0 0->16] [0 0 0 0->0]
r 15.043028098 _7_ RTR  --- 2 DSR 48 [0 ffffffff 1 800] ------- [0:255 18:255 32 0] 2 [1 2] [0 2 0 0->16] [0 0 0 0->0]
r 15.043028098 _2_ RTR  --- 2 DSR 48 [0 ffffffff 1 800] ------- [0:255 18:255 32 0] 2 [1 2] [0 2 0 0->16] [0 0 0 0->0]
r 15.043028177 _25_ RTR  --- 2 DSR 48 [0 ffffffff 1 800] ------- [0:255 18:255 32 0] 2 [1 2] [0 2 0 0->16] [0 0 0 0->0]
r 15.043028177 _3_ RTR  --- 2 DSR 48 [0 ffffffff 1 800] ------- [0:255 18:255 32 0] 2 [1 2] [0 2 0 0->16] [0 0 0 0->0]
r 15.043028177 _24_ RTR  --- 2 DSR 48 [0 ffffffff 1 800] ------- [0:255 18:255 32 0] 2 [1 2] [0 2 0 0->16] [0 0 0 0->0]
r 15.043028177 _5_ RTR  --- 2 DSR 48 [0 ffffffff 1 800] ------- [0:255 18:255 32 0] 2 [1 2] [0 2 0 0->16] [0 0 0 0->0]
f 15.043958691 _4_ RTR  --- 2 DSR 48 [0 ffffffff 0 800] ------- [0:255 18:255 32 0] 2 [1 2] [0 2 0 0->16] [0 0 0 0->0]
r 15.044058236 _25_ RTR  --- 2 DSR 48 [0 ffffffff 1b 800] ------- [0:255 18:255 32 0] 2 [1 2] [0 2 0 0->16] [0 0 0 0->0]
r 15.044058236 _3_ RTR  --- 2 DSR 48 [0 ffffffff 1b 800] ------- [0:255 18:255 32 0] 2 [1 2] [0 2 0 0->16] [0 0 0 0->0]
r 15.044058236 _4_ RTR  --- 2 DSR 48 [0 ffffffff 1b 800] ------- [0:255 18:255 32 0] 2 [1 2] [0 2 0 0->16] [0 0 0 0->0]
r 15.044058374 _6_ RTR  --- 2 DSR 48 [0 ffffffff 1b 800] ------- [0:255 18:255 32 0] 2 [1 2] [0 2 0 0->16] [0 0 0 0->0]
r 15.044058374 _0_ RTR  --- 2 DSR 48 [0 ffffffff 1b 800] ------- [0:255 18:255 32 0] 2 [1 2] [0 2 0 0->16] [0 0 0 0->0]
r 15.044058374 _1_ RTR  --- 2 DSR 48 [0 ffffffff 1b 800] ------- [0:255 18:255 32 0] 2 [1 2] [0 2 0 0->16] [0 0 0 0->0]
r 15.044058374 _7_ RTR  --- 2 DSR 48 [0 ffffffff 1b 800] ------- [0:255 18:255 32 0] 2 [1 2] [0 2 0 0->16] [0 0 0 0->0]
r 15.044058570 _23_ RTR  --- 2 DSR 48 [0 ffffffff 1b 800] ------- [0:255 18:255 32 0] 2 [1 2] [0 2 0 0->16] [0 0 0 0->0]
r 15.044058570 _26_ RTR  --- 2 DSR 48 [0 ffffffff 1b 800] ------- [0:255 18:255 32 0] 2 [1 2] [0 2 0 0->16] [0 0 0 0->0]
r 15.044058648 _9_ RTR  --- 2 DSR 48 [0 ffffffff 1b 800] ------- [0:255 18:255 32 0] 2 [1 2] [0 2 0 0->16] [0 0 0 0->0]
r 15.044058648 _10_ RTR  --- 2 DSR 48 [0 ffffffff 1b 800] ------- [0:255 18:255 32 0] 2 [1 2] [0 2 0 0->16] [0 0 0 0->0]
r 15.044058648 _24_ RTR  --- 2 DSR 48 [0 ffffffff 1b 800] ------- [0:255 18:255 32 0] 2 [1 2] [0 2 0 0->16] [0 0 0 0->0]
r 15.044058648 _28_ RTR  --- 2 DSR 48 [0 ffffffff 1b 800] ------- [0:255 18:255 32 0] 2 [1 2] [0 2 0 0->16] [0 0 0 0->0]
f 15.044162800 _28_ RTR  --- 2 DSR 68 [0 ffffffff 1 800] ------- [0:255 18:255 32 0] 3 [1 2] [0 2 0 0->16] [0 0 0 0->0]
r 15.044908708 _3_ RTR  --- 2 DSR 48 [0 ffffffff 6 800] ------- [0:255 18:255 32 0] 2 [1 2] [0 2 0 0->16] [0 0 0 0->0]
r 15.044908708 _9_ RTR  --- 2 DSR 48 [0 ffffffff 6 800] ------- [0:255 18:255 32 0] 2 [1 2] [0 2 0 0->16] [0 0 0 0->0]
r 15.044908708 _25_ RTR  --- 2 DSR 48 [0 ffffffff 6 800] ------- [0:255 18:255 32 0] 2 [1 2] [0 2 0 0->16] [0 0 0 0->0]
r 15.044908846 _23_ RTR  --- 2 DSR 48 [0 ffffffff 6 800] ------- [0:255 18:255 32 0] 2 [1 2] [0 2 0 0->16] [0 0 0 0->0]
r 15.044908846 _27_ RTR  --- 2 DSR 48 [0 ffffffff 6 800] ------- [0:255 18:255 32 0] 2 [1 2] [0 2 0 0->16] [0 0 0 0->0]
r 15.044909041 _0_ RTR  --- 2 DSR 48 [0 ffffffff 6 800] ------- [0:255 18:255 32 0] 2 [1 2] [0 2 0 0->16] [0 0 0 0->0]
r 15.044909041 _12_ RTR  --- 2 DSR 48 [0 ffffffff 6 800] ------- [0:255 18:255 32 0] 2 [1 2] [0 2 0 0->16] [0 0 0 0->0]
r 15.044909041 _7_ RTR  --- 2 DSR 48 [0 ffffffff 6 800] ------- [0:255 18:255 32 0] 2 [1 2] [0 2 0 0->16] [0 0 0 0->0]
r 15.044909120 _21_ RTR  --- 2 DSR 48 [0 ffffffff 6 800] ------- [0:255 18:255 32 0] 2 [1 2] [0 2 0 0->16] [0 0 0 0->0]
r 15.044909120 _4_ RTR  --- 2 DSR 48 [0 ffffffff 6 800] ------- [0:255 18:255 32 0] 2 [1 2] [0 2 0 0->16] [0 0 0 0->0]
r 15.044909120 _10_ RTR  --- 2 DSR 48 [0 ffffffff 6 800] ------- [0:255 18:255 32 0] 2 [1 2] [0 2 0 0->16] [0 0 0 0->0]
f 15.045273316 _12_ RTR  --- 2 DSR 68 [0 ffffffff 6 800] ------- [0:255 18:255 32 0] 3 [1 2] [0 2 0 0->16] [0 0 0 0->0]
f 15.045852516 _23_ RTR  --- 2 DSR 68 [0 ffffffff 1b 800] ------- [0:255 18:255 32 0] 3 [1 2] [0 2 0 0->16] [0 0 0 0->0]
r 15.045979453 _1_ RTR  --- 2 DSR 48 [0 ffffffff 4 800] ------- [0:255 18:255 32 0] 2 [1 2] [0 2 0 0->16] [0 0 0 0->0]
r 15.045979453 _27_ RTR  --- 2 DSR 48 [0 ffffffff 4 800] ------- [0:255 18:255 32 0] 2 [1 2] [0 2 0 0->16] [0 0 0 0->0]
r 15.045979453 _7_ RTR  --- 2 DSR 48 [0 ffffffff 4 800] ------- [0:255 18:255 32 0] 2 [1 2] [0 2 0 0->16] [0 0 0 0->0]
r 15.045979453 _26_ RTR  --- 2 DSR 48 [0 ffffffff 4 800] ------- [0:255 18:255 32 0] 2 [1 2] [0 2 0 0->16] [0 0 0 0->0]
r 15.045979591 _25_ RTR  --- 2 DSR 48 [0 ffffffff 4 800] ------- [0:255 18:255 32 0] 2 [1 2] [0 2 0 0->16] [0 0 0 0->0]
r 15.045979591 _24_ RTR  --- 2 DSR 48 [0 ffffffff 4 800] ------- [0:255 18:255 32 0] 2 [1 2] [0 2 0 0->16] [0 0 0 0->0]
r 15.045979591 _28_ RTR  --- 2 DSR 48 [0 ffffffff 4 800] ------- [0:255 18:255 32 0] 2 [1 2] [0 2 0 0->16] [0 0 0 0->0]
r 15.045979786 _3_ RTR  --- 2 DSR 48 [0 ffffffff 4 800] ------- [0:255 18:255 32 0] 2 [1 2] [0 2 0 0->16] [0 0 0 0->0]
r 15.045979786 _10_ RTR  --- 2 DSR 48 [0 ffffffff 4 800] ------- [0:255 18:255 32 0] 2 [1 2] [0 2 0 0->16] [0 0 0 0->0]
r 15.045979786 _5_ RTR  --- 2 DSR 48 [0 ffffffff 4 800] ------- [0:255 18:255 32 0] 2 [1 2] [0 2 0 0->16] [0 0 0 0->0]
r 15.045979865 _23_ RTR  --- 2 DSR 48 [0 ffffffff 4 800] ------- [0:255 18:255 32 0] 2 [1 2] [0 2 0 0->16] [0 0 0 0->0]
r 15.045979865 _6_ RTR  --- 2 DSR 48 [0 ffffffff 4 800] ------- [0:255 18:255 32 0] 2 [1 2] [0 2 0 0->16] [0 0 0 0->0]
r 15.045979865 _0_ RTR  --- 2 DSR 48 [0 ffffffff 4 800] ------- [0:255 18:255 32 0] 2 [1 2] [0 2 0 0->16] [0 0 0 0->0]
r 15.045979865 _22_ RTR  --- 2 DSR 48 [0 ffffffff 4 800] ------- [0:255 18:255 32 0] 2 [1 2] [0 2 0 0->16] [0 0 0 0->0]
r 15.045979865 _2_ RTR  --- 2 DSR 48 [0 ffffffff 4 800] ------- [0:255 18:255 32 0] 2 [1 2] [0 2 0 0->16] [0 0 0 0->0]
r 15.045979865 _8_ RTR  --- 2 DSR 48 [0 ffffffff 4 800] ------- [0:255 18:255 32 0] 2 [1 2] [0 2 0 0->16] [0 0 0 0->0]
f 15.046008758 _21_ RTR  --- 2 DSR 68 [0 ffffffff 6 800] ------- [0:255 18:255 32 0] 3 [1 2] [0 2 0 0->16] [0 0 0 0->0]
f 15.046874597 _9_ RTR  --- 2 DSR 68 [0 ffffffff 1b 800] ------- [0:255 18:255 32 0] 3 [1 2] [0 2 0 0->16] [0 0 0 0->0]
r 15.047029925 _26_ RTR  --- 2 DSR 68 [0 ffffffff 1c 800] ------- [0:255 18:255 32 0] 3 [1 2] [0 2 0 0->16] [0 0 0 0->0]
r 15.047029925 _1_ RTR  --- 2 DSR 68 [0 ffffffff 1c 800] ------- [0:255 18:255 32 0] 3 [1 2] [0 2 0 0->16] [0 0 0 0->0]
r 15.047029925 _2_ RTR  --- 2 DSR 68 [0 ffffffff 1c 800] ------- [0:255 18:255 32 0] 3 [1 2] [0 2 0 0->16] [0 0 0 0->0]
r 15.047030063 _4_ RTR  --- 2 DSR 68 [0 ffffffff 1c 800] ------- [0:255 18:255 32 0] 3 [1 2] [0 2 0 0->16] [0 0 0 0->0]
r 15.047030063 _5_ RTR  --- 2 DSR 68 [0 ffffffff 1c 800] ------- [0:255 18:255 32 0] 3 [1 2] [0 2 0 0->16] [0 0 0 0->0]
r 15.047030258 _24_ RTR  --- 2 DSR 68 [0 ffffffff 1c 800] ------- [0:255 18:255 32 0] 3 [1 2] [0 2 0 0->16] [0 0 0 0->0]
r 15.047030337 _7_ RTR  --- 2 DSR 68 [0 ffffffff 1c 800] ------- [0:255 18:255 32 0] 3 [1 2] [0 2 0 0->16] [0 0 0 0->0]
r 15.047030337 _27_ RTR  --- 2 DSR 68 [0 ffffffff 1c 800] ------- [0:255 18:255 32 0] 3 [1 2] [0 2 0 0->16] [0 0 0 0->0]
r 15.047030337 _8_ RTR  --- 2 DSR 68 [0 ffffffff 1c 800] ------- [0:255 18:255 32 0] 3 [1 2] [0 2 0 0->16] [0 0 0 0->0]
r 15.048485126 _21_ RTR  --- 2 DSR 68 [0 ffffffff 17 800] ------- [0:255 18:255 32 0] 3 [1 2] [0 2 0 0->16] [0 0 0 0->0]
r 15.048485126 _9_ RTR  --- 2 DSR 68 [0 ffffffff 17 800] ------- [0:255 18:255 32 0] 3 [1 2] [0 2 0 0->16] [0 0 0 0->0]
r 15.048485126 _25_ RTR  --- 2 DSR 68 [0 ffffffff 17 800] ------- [0:255 18:255 32 0] 3 [1 2] [0 2 0 0->16] [0 0 0 0->0]
r 15.048485126 _10_ RTR  --- 2 DSR 68 [0 ffffffff 17 800] ------- [0:255 18:255 32 0] 3 [1 2] [0 2 0 0->16] [0 0 0 0->0]
r 15.048485264 _12_ RTR  --- 2 DSR 68 [0 ffffffff 17 800] ------- [0:255 18:255 32 0] 3 [1 2] [0 2 0 0->16] [0 0 0 0->0]
r 15.048485264 _6_ RTR  --- 2 DSR 68 [0 ffffffff 17 800] ------- [0:255 18:255 32 0] 3 [1 2] [0 2 0 0->16] [0 0 0 0->0]
r 15.048485264 _7_ RTR  --- 2 DSR 68 [0 ffffffff 17 800] ------- [0:255 18:255 32 0] 3 [1 2] [0 2 0 0->16] [0 0 0 0->0]
r 15.048485264 _13_ RTR  --- 2 DSR 68 [0 ffffffff 17 800] ------- [0:255 18:255 32 0] 3 [1 2] [0 2 0 0->16] [0 0 0 0->0]
r 15.048485460 _19_ RTR  --- 2 DSR 68 [0 ffffffff 17 800] ------- [0:255 18:255 32 0] 3 [1 2] [0 2 0 0->16] [0 0 0 0->0]
r 15.048485460 _27_ RTR  --- 2 DSR 68 [0 ffffffff 17 800] ------- [0:255 18:255 32 0] 3 [1 2] [0 2 0 0->16] [0 0 0 0->0]
r 15.048485460 _22_ RTR  --- 2 DSR 68 [0 ffffffff 17 800] ------- [0:255 18:255 32 0] 3 [1 2] [0 2 0 0->16] [0 0 0 0->0]
r 15.048485538 _15_ RTR  --- 2 DSR 68 [0 ffffffff 17 800] ------- [0:255 18:255 32 0] 3 [1 2] [0 2 0 0->16] [0 0 0 0->0]
r 15.048485538 _3_ RTR  --- 2 DSR 68 [0 ffffffff 17 800] ------- [0:255 18:255 32 0] 3 [1 2] [0 2 0 0->16] [0 0 0 0->0]
r 15.048485538 _4_ RTR  --- 2 DSR 68 [0 ffffffff 17 800] ------- [0:255 18:255 32 0] 3 [1 2] [0 2 0 0->16] [0 0 0 0->0]
r 15.048485538 _16_ RTR  --- 2 DSR 68 [0 ffffffff 17 800] ------- [0:255 18:255 32 0] 3 [1 2] [0 2 0 0->16] [0 0 0 0->0]
r 15.048485538 _20_ RTR  --- 2 DSR 68 [0 ffffffff 17 800] ------- [0:255 18:255 32 0] 3 [1 2] [0 2 0 0->16] [0 0 0 0->0]
r 15.048485538 _24_ RTR  --- 2 DSR 68 [0 ffffffff 17 800] ------- [0:255 18:255 32 0] 3 [1 2] [0 2 0 0->16] [0 0 0 0->0]
f 15.048789518 _3_ RTR  --- 2 DSR 48 [0 ffffffff 0 800] ------- [0:255 18:255 32 0] 2 [1 2] [0 2 0 0->16] [0 0 0 0->0]
f 15.048815361 _10_ RTR  --- 2 DSR 68 [0 ffffffff 1b 800] ------- [0:255 18:255 32 0] 3 [1 2] [0 2 0 0->16] [0 0 0 0->0]
f 15.048894132 _20_ RTR  --- 2 DSR 92 [0 ffffffff 17 800] ------- [0:255 18:255 32 0] 4 [1 2] [0 2 0 0->16] [0 0 0 0->0]
f 15.049181151 _22_ RTR  --- 2 DSR 68 [0 ffffffff 4 800] ------- [0:255 18:255 32 0] 3 [1 2] [0 2 0 0->16] [0 0 0 0->0]
f 15.049232210 _7_ RTR  --- 2 DSR 68 [0 ffffffff 1 800] ------- [0:255 18:255 32 0] 3 [1 2] [0 2 0 0->16] [0 0 0 0->0]
f 15.049280232 _25_ RTR  --- 2 DSR 48 [0 ffffffff 0 800] ------- [0:255 18:255 32 0] 2 [1 2] [0 2 0 0->16] [0 0 0 0->0]
f 15.049336841 _24_ RTR  --- 2 DSR 68 [0 ffffffff 1 800] ------- [0:255 18:255 32 0] 3 [1 2] [0 2 0 0->16] [0 0 0 0->0]
r 15.049755460 _19_ RTR  --- 2 DSR 68 [0 ffffffff 15 800] ------- [0:255 18:255 32 0] 3 [1 2] [0 2 0 0->16] [0 0 0 0->0]
r 15.049755460 _12_ RTR  --- 2 DSR 68 [0 ffffffff 15 800] ------- [0:255 18:255 32 0] 3 [1 2] [0 2 0 0->16] [0 0 0 0->0]
r 15.049755460 _23_ RTR  --- 2 DSR 68 [0 ffffffff 15 800] ------- [0:255 18:255 32 0] 3 [1 2] [0 2 0 0->16] [0 0 0 0->0]
r 15.049755460 _13_ RTR  --- 2 DSR 68 [0 ffffffff 15 800] ------- [0:255 18:255 32 0] 3 [1 2] [0 2 0 0->16] [0 0 0 0->0]
r 15.049755598 _15_ RTR  --- 2 DSR 68 [0 ffffffff 15 800] ------- [0:255 18:255 32 0] 3 [1 2] [0 2 0 0->16] [0 0 0 0->0]
r 15.049755598 _9_ RTR  --- 2 DSR 68 [0 ffffffff 15 800] ------- [0:255 18:255 32 0] 3 [1 2] [0 2 0 0->16] [0 0 0 0->0]
r 15.049755598 _10_ RTR  --- 2 DSR 68 [0 ffffffff 15 800] ------- [0:255 18:255 32 0] 3 [1 2] [0 2 0 0->16] [0 0 0 0->0]
r 15.049755598 _16_ RTR  --- 2 DSR 68 [0 ffffffff 15 800] ------- [0:255 18:255 32 0] 3 [1 2] [0 2 0 0->16] [0 0 0 0->0]
r 15.049755793 _25_ RTR  --- 2 DSR 68 [0 ffffffff 15 800] ------- [0:255 18:255 32 0] 3 [1 2] [0 2 0 0->16] [0 0 0 0->0]
r 15.049755793 _20_ RTR  --- 2 DSR 68 [0 ffffffff 15 800] ------- [0:255 18:255 32 0] 3 [1 2] [0 2 0 0->16] [0 0 0 0->0]
r 15.049755872 _6_ RTR  --- 2 DSR 68 [0 ffffffff 15 800] ------- [0:255 18:255 32 0] 3 [1 2] [0 2 0 0->16] [0 0 0 0->0]
r 15.049755872 _7_ RTR  --- 2 DSR 68 [0 ffffffff 15 800] ------- [0:255 18:255 32 0] 3 [1 2] [0 2 0 0->16] [0 0 0 0->0]
r 15.049755872 _18_ RTR  --- 2 DSR 68 [0 ffffffff 15 800] ------- [0:255 18:255 32 0] 3 [1 2] [0 2 0 0->16] [0 0 0 0->0]
r 15.049755872 _22_ RTR  --- 2 DSR 68 [0 ffffffff 15 800] ------- [0:255 18:255 32 0] 3 [1 2] [0 2 0 0->16] [0 0 0 0->0]
f 15.049824643 _26_ RTR  --- 2 DSR 68 [0 ffffffff 1 800] ------- [0:255 18:255 32 0] 3 [1 2] [0 2 0 0->16] [0 0 0 0->0]
f 15.049832123 _15_ RTR  --- 2 DSR 92 [0 ffffffff 17 800] ------- [0:255 18:255 32 0] 4 [1 2] [0 2 0 0->16] [0 0 0 0->0]
r 15.050826205 _4_ RTR  --- 2 DSR 68 [0 ffffffff 7 800] ------- [0:255 18:255 32 0] 3 [1 2] [0 2 0 0->16] [0 0 0 0->0]
r 15.050826205 _25_ RTR  --- 2 DSR 68 [0 ffffffff 7 800] ------- [0:255 18:255 32 0] 3 [1 2] [0 2 0 0->16] [0 0 0 0->0]
r 15.050826205 _10_ RTR  --- 2 DSR 68 [0 ffffffff 7 800] ------- [0:255 18:255 32 0] 3 [1 2] [0 2 0 0->16] [0 0 0 0->0]
r 15.050826205 _24_ RTR  --- 2 DSR 68 [0 ffffffff 7 800] ------- [0:255 18:255 32 0] 3 [1 2] [0 2 0 0->16] [0 0 0 0->0]
r 15.050826343 _27_ RTR  --- 2 DSR 68 [0 ffffffff 7 800] ------- [0:255 18:255 32 0] 3 [1 2] [0 2 0 0->16] [0 0 0 0->0]
r 15.050826343 _23_ RTR  --- 2 DSR 68 [0 ffffffff 7 800] ------- [0:255 18:255 32 0] 3 [1 2] [0 2 0 0->16] [0 0 0 0->0]
r 15.050826343 _22_ RTR  --- 2 DSR 68 [0 ffffffff 7 800] ------- [0:255 18:255 32 0] 3 [1 2] [0 2 0 0->16] [0 0 0 0->0]
r 15.050826343 _26_ RTR  --- 2 DSR 68 [0 ffffffff 7 800] ------- [0:255 18:255 32 0] 3 [1 2] [0 2 0 0->16] [0 0 0 0->0]
r 15.050826538 _1_ RTR  --- 2 DSR 68 [0 ffffffff 7 800] ------- [0:255 18:255 32 0] 3 [1 2] [0 2 0 0->16] [0 0 0 0->0]
r 15.050826538 _6_ RTR  --- 2 DSR 68 [0 ffffffff 7 800] ------- [0:255 18:255 32 0] 3 [1 2] [0 2 0 0->16] [0 0 0 0->0]
r 15.050826538 _13_ RTR  --- 2 DSR 68 [0 ffffffff 7 800] ------- [0:255 18:255 32 0] 3 [1 2] [0 2 0 0->16] [0 0 0 0->0]
r 15.050826538 _8_ RTR  --- 2 DSR 68 [0 ffffffff 7 800] ------- [0:255 18:255 32 0] 3 [1 2] [0 2 0 0->16] [0 0 0 0->0]
r 15.050826617 _21_ RTR  --- 2 DSR 68 [0 ffffffff 7 800] ------- [0:255 18:255 32 0] 3 [1 2] [0 2 0 0->16] [0 0 0 0->0]
r 15.050826617 _9_ RTR  --- 2 DSR 68 [0 ffffffff 7 800] ------- [0:255 18:255 32 0] 3 [1 2] [0 2 0 0->16] [0 0 0 0->0]
r 15.050826617 _3_ RTR  --- 2 DSR 68 [0 ffffffff 7 800] ------- [0:255 18:255 32 0] 3 [1 2] [0 2 0 0->16] [0 0 0 0->0]
r 15.050826617 _20_ RTR  --- 2 DSR 68 [0 ffffffff 7 800] ------- [0:255 18:255 32 0] 3 [1 2] [0 2 0 0->16] [0 0 0 0->0]
r 15.050826617 _28_ RTR  --- 2 DSR 68 [0 ffffffff 7 800] ------- [0:255 18:255 32 0] 3 [1 2] [0 2 0 0->16] [0 0 0 0->0]
r 15.050826617 _5_ RTR  --- 2 DSR 68 [0 ffffffff 7 800] ------- [0:255 18:255 32 0] 3 [1 2] [0 2 0 0->16] [0 0 0 0->0]
r 15.050826617 _11_ RTR  --- 2 DSR 68 [0 ffffffff 7 800] ------- [0:255 18:255 32 0] 3 [1 2] [0 2 0 0->16] [0 0 0 0->0]
f 15.051135671 _5_ RTR  --- 2 DSR 68 [0 ffffffff 1 800] ------- [0:255 18:255 32 0] 3 [1 2] [0 2 0 0->16] [0 0 0 0->0]
f 15.051455570 _8_ RTR  --- 2 DSR 68 [0 ffffffff 4 800] ------- [0:255 18:255 32 0] 3 [1 2] [0 2 0 0->16] [0 0 0 0->0]
f 15.051717646 _13_ RTR  --- 2 DSR 92 [0 ffffffff 17 800] ------- [0:255 18:255 32 0] 4 [1 2] [0 2 0 0->16] [0 0 0 0->0]
r 15.051856677 _24_ RTR  --- 2 DSR 68 [0 ffffffff 1a 800] ------- [0:255 18:255 32 0] 3 [1 2] [0 2 0 0->16] [0 0 0 0->0]
r 15.051856677 _4_ RTR  --- 2 DSR 68 [0 ffffffff 1a 800] ------- [0:255 18:255 32 0] 3 [1 2] [0 2 0 0->16] [0 0 0 0->0]
r 15.051856677 _28_ RTR  --- 2 DSR 68 [0 ffffffff 1a 800] ------- [0:255 18:255 32 0] 3 [1 2] [0 2 0 0->16] [0 0 0 0->0]
r 15.051856677 _5_ RTR  --- 2 DSR 68 [0 ffffffff 1a 800] ------- [0:255 18:255 32 0] 3 [1 2] [0 2 0 0->16] [0 0 0 0->0]
r 15.051856815 _7_ RTR  --- 2 DSR 68 [0 ffffffff 1a 800] ------- [0:255 18:255 32 0] 3 [1 2] [0 2 0 0->16] [0 0 0 0->0]
r 15.051856815 _1_ RTR  --- 2 DSR 68 [0 ffffffff 1a 800] ------- [0:255 18:255 32 0] 3 [1 2] [0 2 0 0->16] [0 0 0 0->0]
r 15.051856815 _2_ RTR  --- 2 DSR 68 [0 ffffffff 1a 800] ------- [0:255 18:255 32 0] 3 [1 2] [0 2 0 0->16] [0 0 0 0->0]
r 15.051856815 _8_ RTR  --- 2 DSR 68 [0 ffffffff 1a 800] ------- [0:255 18:255 32 0] 3 [1 2] [0 2 0 0->16] [0 0 0 0->0]
r 15.051857010 _22_ RTR  --- 2 DSR 68 [0 ffffffff 1a 800] ------- [0:255 18:255 32 0] 3 [1 2] [0 2 0 0->16] [0 0 0 0->0]
r 15.051857010 _27_ RTR  --- 2 DSR 68 [0 ffffffff 1a 800] ------- [0:255 18:255 32 0] 3 [1 2] [0 2 0 0->16] [0 0 0 0->0]
r 15.051857089 _10_ RTR  --- 2 DSR 68 [0 ffffffff 1a 800] ------- [0:255 18:255 32 0] 3 [1 2] [0 2 0 0->16] [0 0 0 0->0]
r 15.051857089 _25_ RTR  --- 2 DSR 68 [0 ffffffff 1a 800] ------- [0:255 18:255 32 0] 3 [1 2] [0 2 0 0->16] [0 0 0 0->0]
r 15.051857089 _11_ RTR  --- 2 DSR 68 [0 ffffffff 1a 800] ------- [0:255 18:255 32 0] 3 [1 2] [0 2 0 0->16] [0 0 0 0->0]
f 15.052350624 _2_ RTR  --- 2 DSR 68 [0 ffffffff 1 800] ------- [0:255 18:255 32 0] 3 [1 2] [0 2 0 0->16] [0 0 0 0->0]
r 15.052867148 _5_ RTR  --- 2 DSR 68 [0 ffffffff 8 800] ------- [0:255 18:255 32 0] 3 [1 2] [0 2 0 0->16] [0 0 0 0->0]
r 15.052867148 _24_ RTR  --- 2 DSR 68 [0 ffffffff 8 800] ------- [0:255 18:255 32 0] 3 [1 2] [0 2 0 0->16] [0 0 0 0->0]
r 15.052867148 _11_ RTR  --- 2 DSR 68 [0 ffffffff 8 800] ------- [0:255 18:255 32 0] 3 [1 2] [0 2 0 0->16] [0 0 0 0->0]
r 15.052867286 _26_ RTR  --- 2 DSR 68 [0 ffffffff 8 800] ------- [0:255 18:255 32 0] 3 [1 2] [0 2 0 0->16] [0 0 0 0->0]
r 15.052867286 _22_ RTR  --- 2 DSR 68 [0 ffffffff 8 800] ------- [0:255 18:255 32 0] 3 [1 2] [0 2 0 0->16] [0 0 0 0->0]
r 15.052867481 _2_ RTR  --- 2 DSR 68 [0 ffffffff 8 800] ------- [0:255 18:255 32 0] 3 [1 2] [0 2 0 0->16] [0 0 0 0->0]
r 15.052867481 _7_ RTR  --- 2 DSR 68 [0 ffffffff 8 800] ------- [0:255 18:255 32 0] 3 [1 2] [0 2 0 0->16] [0 0 0 0->0]
r 15.052867481 _14_ RTR  --- 2 DSR 68 [0 ffffffff 8 800] ------- [0:255 18:255 32 0] 3 [1 2] [0 2 0 0->16] [0 0 0 0->0]
r 15.052867560 _28_ RTR  --- 2 DSR 68 [0 ffffffff 8 800] ------- [0:255 18:255 32 0] 3 [1 2] [0 2 0 0->16] [0 0 0 0->0]
r 15.052867560 _20_ RTR  --- 2 DSR 68 [0 ffffffff 8 800] ------- [0:255 18:255 32 0] 3 [1 2] [0 2 0 0->16] [0 0 0 0->0]
r 15.052867560 _10_ RTR  --- 2 DSR 68 [0 ffffffff 8 800] ------- [0:255 18:255 32 0] 3 [1 2] [0 2 0 0->16] [0 0 0 0->0]
r 15.052867560 _4_ RTR  --- 2 DSR 68 [0 ffffffff 8 800] ------- [0:255 18:255 32 0] 3 [1 2] [0 2 0 0->16] [0 0 0 0->0]
f 15.053777244 _16_ RTR  --- 2 DSR 92 [0 ffffffff 17 800] ------- [0:255 18:255 32 0] 4 [1 2] [0 2 0 0->16] [0 0 0 0->0]
r 15.054077893 _7_ RTR  --- 2 DSR 68 [0 ffffffff a 800] ------- [0:255 18:255 32 0] 3 [1 2] [0 2 0 0->16] [0 0 0 0->0]
r 15.054077893 _23_ RTR  --- 2 DSR 68 [0 ffffffff a 800] ------- [0:255 18:255 32 0] 3 [1 2] [0 2 0 0->16] [0 0 0 0->0]
r 15.054077893 _13_ RTR  --- 2 DSR 68 [0 ffffffff a 800] ------- [0:255 18:255 32 0] 3 [1 2] [0 2 0 0->16] [0 0 0 0->0]
r 15.054077893 _22_ RTR  --- 2 DSR 68 [0 ffffffff a 800] ------- [0:255 18:255 32 0] 3 [1 2] [0 2 0 0->16] [0 0 0 0->0]
r 15.054078031 _25_ RTR  --- 2 DSR 68 [0 ffffffff a 800] ------- [0:255 18:255 32 0] 3 [1 2] [0 2 0 0->16] [0 0 0 0->0]
r 15.054078031 _21_ RTR  --- 2 DSR 68 [0 ffffffff a 800] ------- [0:255 18:255 32 0] 3 [1 2] [0 2 0 0->16] [0 0 0 0->0]
r 15.054078031 _20_ RTR  --- 2 DSR 68 [0 ffffffff a 800] ------- [0:255 18:255 32 0] 3 [1 2] [0 2 0 0->16] [0 0 0 0->0]
r 15.054078031 _24_ RTR  --- 2 DSR 68 [0 ffffffff a 800] ------- [0:255 18:255 32 0] 3 [1 2] [0 2 0 0->16] [0 0 0 0->0]
r 15.054078227 _4_ RTR  --- 2 DSR 68 [0 ffffffff a 800] ------- [0:255 18:255 32 0] 3 [1 2] [0 2 0 0->16] [0 0 0 0->0]
r 15.054078227 _9_ RTR  --- 2 DSR 68 [0 ffffffff a 800] ------- [0:255 18:255 32 0] 3 [1 2] [0 2 0 0->16] [0 0 0 0->0]
r 15.054078227 _16_ RTR  --- 2 DSR 68 [0 ffffffff a 800] ------- [0:255 18:255 32 0] 3 [1 2] [0 2 0 0->16] [0 0 0 0->0]
r 15.054078227 _11_ RTR  --- 2 DSR 68 [0 ffffffff a 800] ------- [0:255 18:255 32 0] 3 [1 2] [0 2 0 0->16] [0 0 0 0->0]
r 15.054078305 _27_ RTR  --- 2 DSR 68 [0 ffffffff a 800] ------- [0:255 18:255 32 0] 3 [1 2] [0 2 0 0->16] [0 0 0 0->0]
r 15.054078305 _19_ RTR  --- 2 DSR 68 [0 ffffffff a 800] ------- [0:255 18:255 32 0] 3 [1 2] [0 2 0 0->16] [0 0 0 0->0]
r 15.054078305 _12_ RTR  --- 2 DSR 68 [0 ffffffff a 800] ------- [0:255 18:255 32 0] 3 [1 2] [0 2 0 0->16] [0 0 0 0->0]
r 15.054078305 _6_ RTR  --- 2 DSR 68 [0 ffffffff a 800] ------- [0:255 18:255 32 0] 3 [1 2] [0 2 0 0->16] [0 0 0 0->0]
r 15.054078305 _18_ RTR  --- 2 DSR 68 [0 ffffffff a 800] ------- [0:255 18:255 32 0] 3 [1 2] [0 2 0 0->16] [0 0 0 0->0]
r 15.054078305 _26_ RTR  --- 2 DSR 68 [0 ffffffff a 800] ------- [0:255 18:255 32 0] 3 [1 2] [0 2 0 0->16] [0 0 0 0->0]
r 15.054078305 _8_ RTR  --- 2 DSR 68 [0 ffffffff a 800] ------- [0:255 18:255 32 0] 3 [1 2] [0 2 0 0->16] [0 0 0 0->0]
r 15.054078305 _14_ RTR  --- 2 DSR 68 [0 ffffffff a 800] ------- [0:255 18:255 32 0] 3 [1 2] [0 2 0 0->16] [0 0 0 0->0]
f 15.054205475 _19_ RTR  --- 2 DSR 92 [0 ffffffff 17 800] ------- [0:255 18:255 32 0] 4 [1 2] [0 2 0 0->16] [0 0 0 0->0]
r 15.055168639 _9_ RTR  --- 2 DSR 68 [0 ffffffff c 800] ------- [0:255 18:255 32 0] 3 [1 2] [0 2 0 0->16] [0 0 0 0->0]
r 15.055168639 _15_ RTR  --- 2 DSR 68 [0 ffffffff c 800] ------- [0:255 18:255 32 0] 3 [1 2] [0 2 0 0->16] [0 0 0 0->0]
r 15.055168639 _21_ RTR  --- 2 DSR 68 [0 ffffffff c 800] ------- [0:255 18:255 32 0] 3 [1 2] [0 2 0 0->16] [0 0 0 0->0]
r 15.055168777 _19_ RTR  --- 2 DSR 68 [0 ffffffff c 800] ------- [0:255 18:255 32 0] 3 [1 2] [0 2 0 0->16] [0 0 0 0->0]
r 15.055168777 _23_ RTR  --- 2 DSR 68 [0 ffffffff c 800] ------- [0:255 18:255 32 0] 3 [1 2] [0 2 0 0->16] [0 0 0 0->0]
r 15.055168972 _6_ RTR  --- 2 DSR 68 [0 ffffffff c 800] ------- [0:255 18:255 32 0] 3 [1 2] [0 2 0 0->16] [0 0 0 0->0]
r 15.055168972 _13_ RTR  --- 2 DSR 68 [0 ffffffff c 800] ------- [0:255 18:255 32 0] 3 [1 2] [0 2 0 0->16] [0 0 0 0->0]
r 15.055169051 _16_ RTR  --- 2 DSR 68 [0 ffffffff c 800] ------- [0:255 18:255 32 0] 3 [1 2] [0 2 0 0->16] [0 0 0 0->0]
r 15.056810972 _12_ RTR  --- 2 DSR 92 [0 ffffffff f 800] ------- [0:255 18:255 32 0] 4 [1 2] [0 2 0 0->16] [0 0 0 0->0]
r 15.056810972 _19_ RTR  --- 2 DSR 92 [0 ffffffff f 800] ------- [0:255 18:255 32 0] 4 [1 2] [0 2 0 0->16] [0 0 0 0->0]
r 15.056811110 _21_ RTR  --- 2 DSR 92 [0 ffffffff f 800] ------- [0:255 18:255 32 0] 4 [1 2] [0 2 0 0->16] [0 0 0 0->0]
r 15.056811305 _9_ RTR  --- 2 DSR 92 [0 ffffffff f 800] ------- [0:255 18:255 32 0] 4 [1 2] [0 2 0 0->16] [0 0 0 0->0]
r 15.056811305 _16_ RTR  --- 2 DSR 92 [0 ffffffff f 800] ------- [0:255 18:255 32 0] 4 [1 2] [0 2 0 0->16] [0 0 0 0->0]
r 15.057307428 _2_ RTR  --- 2 DSR 68 [0 ffffffff 5 800] ------- [0:255 18:255 32 0] 3 [1 2] [0 2 0 0->16] [0 0 0 0->0]
r 15.057307428 _26_ RTR  --- 2 DSR 68 [0 ffffffff 5 800] ------- [0:255 18:255 32 0] 3 [1 2] [0 2 0 0->16] [0 0 0 0->0]
r 15.057307428 _8_ RTR  --- 2 DSR 68 [0 ffffffff 5 800] ------- [0:255 18:255 32 0] 3 [1 2] [0 2 0 0->16] [0 0 0 0->0]
r 15.057307567 _28_ RTR  --- 2 DSR 68 [0 ffffffff 5 800] ------- [0:255 18:255 32 0] 3 [1 2] [0 2 0 0->16] [0 0 0 0->0]
r 15.057307567 _24_ RTR  --- 2 DSR 68 [0 ffffffff 5 800] ------- [0:255 18:255 32 0] 3 [1 2] [0 2 0 0->16] [0 0 0 0->0]
r 15.057307762 _4_ RTR  --- 2 DSR 68 [0 ffffffff 5 800] ------- [0:255 18:255 32 0] 3 [1 2] [0 2 0 0->16] [0 0 0 0->0]
r 15.057307840 _1_ RTR  --- 2 DSR 68 [0 ffffffff 5 800] ------- [0:255 18:255 32 0] 3 [1 2] [0 2 0 0->16] [0 0 0 0->0]
s 15.058245751 _18_ RTR  --- 5 DSR 60 [0 0 0 0] ------- [18:255 0:255 254 21] 4 [0 2] [1 2 4 0->18] [0 0 0 0->0]
r 15.058617900 _22_ RTR  --- 2 DSR 68 [0 ffffffff 18 800] ------- [0:255 18:255 32 0] 3 [1 2] [0 2 0 0->16] [0 0 0 0->0]
r 15.058617900 _7_ RTR  --- 2 DSR 68 [0 ffffffff 18 800] ------- [0:255 18:255 32 0] 3 [1 2] [0 2 0 0->16] [0 0 0 0->0]
r 15.058617900 _26_ RTR  --- 2 DSR 68 [0 ffffffff 18 800] ------- [0:255 18:255 32 0] 3 [1 2] [0 2 0 0->16] [0 0 0 0->0]
r 15.058617900 _8_ RTR  --- 2 DSR 68 [0 ffffffff 18 800] ------- [0:255 18:255 32 0] 3 [1 2] [0 2 0 0->16] [0 0 0 0->0]
r 15.058618038 _10_ RTR  --- 2 DSR 68 [0 ffffffff 18 800] ------- [0:255 18:255 32 0] 3 [1 2] [0 2 0 0->16] [0 0 0 0->0]
r 15.058618038 _4_ RTR  --- 2 DSR 68 [0 ffffffff 18 800] ------- [0:255 18:255 32 0] 3 [1 2] [0 2 0 0->16] [0 0 0 0->0]
r 15.058618038 _5_ RTR  --- 2 DSR 68 [0 ffffffff 18 800] ------- [0:255 18:255 32 0] 3 [1 2] [0 2 0 0->16] [0 0 0 0->0]
r 15.058618038 _11_ RTR  --- 2 DSR 68 [0 ffffffff 18 800] ------- [0:255 18:255 32 0] 3 [1 2] [0 2 0 0->16] [0 0 0 0->0]
r 15.058618233 _20_ RTR  --- 2 DSR 68 [0 ffffffff 18 800] ------- [0:255 18:255 32 0] 3 [1 2] [0 2 0 0->16] [0 0 0 0->0]
r 15.058618233 _25_ RTR  --- 2 DSR 68 [0 ffffffff 18 800] ------- [0:255 18:255 32 0] 3 [1 2] [0 2 0 0->16] [0 0 0 0->0]
r 15.058618233 _28_ RTR  --- 2 DSR 68 [0 ffffffff 18 800] ------- [0:255 18:255 32 0] 3 [1 2] [0 2 0 0->16] [0 0 0 0->0]
r 15.058618312 _13_ RTR  --- 2 DSR 68 [0 ffffffff 18 800] ------- [0:255 18:255 32 0] 3 [1 2] [0 2 0 0->16] [0 0 0 0->0]
r 15.058618312 _1_ RTR  --- 2 DSR 68 [0 ffffffff 18 800] ------- [0:255 18:255 32 0] 3 [1 2] [0 2 0 0->16] [0 0 0 0->0]
r 15.058618312 _27_ RTR  --- 2 DSR 68 [0 ffffffff 18 800] ------- [0:255 18:255 32 0] 3 [1 2] [0 2 0 0->16] [0 0 0 0->0]
r 15.058618312 _23_ RTR  --- 2 DSR 68 [0 ffffffff 18 800] ------- [0:255 18:255 32 0] 3 [1 2] [0 2 0 0->16] [0 0 0 0->0]
r 15.058618312 _2_ RTR  --- 2 DSR 68 [0 ffffffff 18 800] ------- [0:255 18:255 32 0] 3 [1 2] [0 2 0 0->16] [0 0 0 0->0]
r 15.058618312 _14_ RTR  --- 2 DSR 68 [0 ffffffff 18 800] ------- [0:255 18:255 32 0] 3 [1 2] [0 2 0 0->16] [0 0 0 0->0]
f 15.059175975 _11_ RTR  --- 2 DSR 92 [0 ffffffff 7 800] ------- [0:255 18:255 32 0] 4 [1 2] [0 2 0 0->16] [0 0 0 0->0]
s 15.059374416 _18_ RTR  --- 6 DSR 60 [0 0 0 0] ------- [18:255 0:255 254 10] 4 [0 2] [1 2 4 0->18] [0 0 0 0->0]
r 15.059920567 _18_ RTR  --- 2 DSR 92 [0 ffffffff 14 800] ------- [0:255 18:255 32 0] 4 [1 2] [0 2 0 0->16] [0 0 0 0->0]
r 15.059920567 _13_ RTR  --- 2 DSR 92 [0 ffffffff 14 800] ------- [0:255 18:255 32 0] 4 [1 2] [0 2 0 0->16] [0 0 0 0->0]
r 15.059920567 _22_ RTR  --- 2 DSR 92 [0 ffffffff 14 800] ------- [0:255 18:255 32 0] 4 [1 2] [0 2 0 0->16] [0 0 0 0->0]
r 15.059920567 _14_ RTR  --- 2 DSR 92 [0 ffffffff 14 800] ------- [0:255 18:255 32 0] 4 [1 2] [0 2 0 0->16] [0 0 0 0->0]
r 15.059920705 _16_ RTR  --- 2 DSR 92 [0 ffffffff 14 800] ------- [0:255 18:255 32 0] 4 [1 2] [0 2 0 0->16] [0 0 0 0->0]
r 15.059920705 _10_ RTR  --- 2 DSR 92 [0 ffffffff 14 800] ------- [0:255 18:255 32 0] 4 [1 2] [0 2 0 0->16] [0 0 0 0->0]
r 15.059920705 _11_ RTR  --- 2 DSR 92 [0 ffffffff 14 800] ------- [0:255 18:255 32 0] 4 [1 2] [0 2 0 0->16] [0 0 0 0->0]
r 15.059920705 _17_ RTR  --- 2 DSR 92 [0 ffffffff 14 800] ------- [0:255 18:255 32 0] 4 [1 2] [0 2 0 0->16] [0 0 0 0->0]
r 15.059920900 _21_ RTR  --- 2 DSR 92 [0 ffffffff 14 800] ------- [0:255 18:255 32 0] 4 [1 2] [0 2 0 0->16] [0 0 0 0->0]
r 15.059920900 _24_ RTR  --- 2 DSR 92 [0 ffffffff 14 800] ------- [0:255 18:255 32 0] 4 [1 2] [0 2 0 0->16] [0 0 0 0->0]
r 15.059920979 _7_ RTR  --- 2 DSR 92 [0 ffffffff 14 800] ------- [0:255 18:255 32 0] 4 [1 2] [0 2 0 0->16] [0 0 0 0->0]
r 15.059920979 _23_ RTR  --- 2 DSR 92 [0 ffffffff 14 800] ------- [0:255 18:255 32 0] 4 [1 2] [0 2 0 0->16] [0 0 0 0->0]