n -t * -s 0  -x 100 -y 0 -Z 0 -z 30  -v circle -c black
n -t * -s 1  -x 300 -y 0 -Z 0 -z 30  -v circle -c black
n -t * -s 2  -x 500 -y 0 -Z 0 -z 30  -v circle -c black
n -t * -s 3  -x 100 -y 100 -Z 0 -z 30  -v circle -c black
n -t * -s 4  -x 300 -y 100 -Z 0 -z 30  -v circle -c black
n -t * -s 5  -x 500 -y 100 -Z 0 -z 30  -v circle -c black
n -t * -s 6  -x 100 -y 200 -Z 0 -z 30  -v circle -c black
n -t * -s 7  -x 300 -y 200 -Z 0 -z 30  -v circle -c black
n -t * -s 8  -x 500 -y 200 -Z 0 -z 30  -v circle -c black
n -t * -s 9  -x 100 -y 300 -Z 0 -z 30  -v circle -c black
n -t * -s 10  -x 300 -y 300 -Z 0 -z 30  -v circle -c black
n -t * -s 11  -x 500 -y 300 -Z 0 -z 30  -v circle -c black
n -t * -s 12  -x 100 -y 400 -Z 0 -z 30  -v circle -c black
n -t * -s 13  -x 300 -y 400 -Z 0 -z 30  -v circle -c black
n -t * -s 14  -x 500 -y 400 -Z 0 -z 30  -v circle -c black
n -t * -s 15  -x 100 -y 500 -Z 0 -z 30  -v circle -c black
n -t * -s 16  -x 300 -y 500 -Z 0 -z 30  -v circle -c black
n -t * -s 17  -x 500 -y 500 -Z 0 -z 30  -v circle -c black
n -t * -s 18  -x 400 -y 500 -Z 0 -z 30  -v circle -c black
n -t * -s 19  -x 200 -y 500 -Z 0 -z 30  -v circle -c black
n -t * -s 20  -x 400 -y 400 -Z 0 -z 30  -v circle -c black
n -t * -s 21  -x 200 -y 400 -Z 0 -z 30  -v circle -c black
n -t * -s 22  -x 400 -y 300 -Z 0 -z 30  -v circle -c black
n -t * -s 23  -x 200 -y 300 -Z 0 -z 30  -v circle -c black
n -t * -s 24  -x 400 -y 200 -Z 0 -z 30  -v circle -c black
n -t * -s 25  -x 200 -y 200 -Z 0 -z 30  -v circle -c black
n -t * -s 26  -x 400 -y 100 -Z 0 -z 30  -v circle -c black
n -t * -s 27  -x 200 -y 100 -Z 0 -z 30  -v circle -c black
n -t * -s 28  -x 400 -y 0 -Z 0 -z 30  -v circle -c black
V -t * -v 1.0a5 -a 0
W -t * -x 500 -y 500
A -t * -n 1 -p 0 -o 0xffffffff -c 31 -a 1
A -t * -h 1 -m 2147483647 -s 0
+ -t 15.000000000 -s 0 -d -1 -p cbr -e 512 -c 2 -a 0 -i 0 -k AGT 
- -t 15.000000000 -s 0 -d -1 -p cbr -e 512 -c 2 -a 0 -i 0 -k AGT
h -t 15.000000000 -s 0 -d -1 -p cbr -e 512 -c 2 -a 0 -i 0 -k AGT
+ -t 15.002342658 -s 0 -d -1 -p DSR -e 32 -c 2 -a 0 -i 1 -k RTR 
- -t 15.002342658 -s 0 -d -1 -p DSR -e 32 -c 2 -a 0 -i 1 -k RTR
h -t 15.002342658 -s 0 -d -1 -p DSR -e 32 -c 2 -a 0 -i 1 -k RTR
+ -t 15.040106880 -s 0 -d -1 -p DSR -e 32 -c 2 -a 0 -i 2 -k RTR 
- -t 15.040106880 -s 0 -d -1 -p DSR -e 32 -c 2 -a 0 -i 2 -k RTR
h -t 15.040106880 -s 0 -d -1 -p DSR -e 32 -c 2 -a 0 -i 2 -k RTR
+ -t 15.041387545 -s 0 -d -1 -p cbr -e 512 -c 2 -a 0 -i 3 -k AGT 
- -t 15.041387545 -s 0 -d -1 -p cbr -e 512 -c 2 -a 0 -i 3 -k AGT
h -t 15.041387545 -s 0 -d -1 -p cbr -e 512 -c 2 -a 0 -i 3 -k AGT
+ -t 15.042047432 -s 1 -d -1 -p DSR -e 48 -c 2 -a 0 -i 2 -k RTR 
- -t 15.042047432 -s 1 -d -1 -p DSR -e 48 -c 2 -a 0 -i 2 -k RTR
h -t 15.042047432 -s 1 -d -1 -p DSR -e 48 -c 2 -a 0 -i 2 -k RTR
+ -t 15.042460284 -s 6 -d -1 -p DSR -e 48 -c 2 -a 0 -i 2 -k RTR 
- -t 15.042460284 -s 6 -d -1 -p DSR -e 48 -c 2 -a 0 -i 2 -k RTR
h -t 15.042460284 -s 6 -d -1 -p DSR -e 48 -c 2 -a 0 -i 2 -k RTR
+ -t 15.042970754 -s 27 -d -1 -p DSR -e 48 -c 2 -a 0 -i 2 -k RTR 
- -t 15.042970754 -s 27 -d -1 -p DSR -e 48 -c 2 -a 0 -i 2 -k RTR
h -t 15.042970754 -s 27 -d -1 -p DSR -e 48 -c 2 -a 0 -i 2 -k RTR
+ -t 15.043958691 -s 4 -d -1 -p DSR -e 48 -c 2 -a 0 -i 2 -k RTR 
- -t 15.043958691 -s 4 -d -1 -p DSR -e 48 -c 2 -a 0 -i 2 -k RTR
h -t 15.043958691 -s 4 -d -1 -p DSR -e 48 -c 2 -a 0 -i 2 -k RTR
+ -t 15.044162800 -s 28 -d -1 -p DSR -e 68 -c 2 -a 0 -i 2 -k RTR 
- -t 15.044162800 -s 28 -d -1 -p DSR -e 68 -c 2 -a 0 -i 2 -k RTR
h -t 15.044162800 -s 28 -d -1 -p DSR -e 68 -c 2 -a 0 -i 2 -k RTR
+ -t 15.045273316 -s 12 -d -1 -p DSR -e 68 -c 2 -a 0 -i 2 -k RTR 
- -t 15.045273316 -s 12 -d -1 -p DSR -e 68 -c 2 -a 0 -i 2 -k RTR
h -t 15.045273316 -s 12 -d -1 -p DSR -e 68 -c 2 -a 0 -i 2 -k RTR
+ -t 15.045852516 -s 23 -d -1 -p DSR -e 68 -c 2 -a 0 -i 2 -k RTR 
- -t 15.045852516 -s 23 -d -1 -p DSR -e 68 -c 2 -a 0 -i 2 -k RTR
h -t 15.045852516 -s 23 -d -1 -p DSR -e 68 -c 2 -a 0 -i 2 -k RTR
+ -t 15.046008758 -s 21 -d -1 -p DSR -e 68 -c 2 -a 0 -i 2 -k RTR 
- -t 15.046008758 -s 21 -d -1 -p DSR -e 68 -c 2 -a 0 -i 2 -k RTR
h -t 15.046008758 -s 21 -d -1 -p DSR -e 68 -c 2 -a 0 -i 2 -k RTR
+ -t 15.046874597 -s 9 -d -1 -p DSR -e 68 -c 2 -a 0 -i 2 -k RTR 
- -t 15.046874597 -s 9 -d -1 -p DSR -e 68 -c 2 -a 0 -i 2 -k RTR
h -t 15.046874597 -s 9 -d -1 -p DSR -e 68 -c 2 -a 0 -i 2 -k RTR
+ -t 15.048789518 -s 3 -d -1 -p DSR -e 48 -c 2 -a 0 -i 2 -k RTR 
- -t 15.048789518 -s 3 -d -1 -p DSR -e 48 -c 2 -a 0 -i 2 -k RTR
h -t 15.048789518 -s 3 -d -1 -p DSR -e 48 -c 2 -a 0 -i 2 -k RTR
+ -t 15.048815361 -s 10 -d -1 -p DSR -e 68 -c 2 -a 0 -i 2 -k RTR 
- -t 15.048815361 -s 10 -d -1 -p DSR -e 68 -c 2 -a 0 -i 2 -k RTR
h -t 15.048815361 -s 10 -d -1 -p DSR -e 68 -c 2 -a 0 -i 2 -k RTR
+ -t 15.048894132 -s 20 -d -1 -p DSR -e 92 -c 2 -a 0 -i 2 -k RTR 
- -t 15.048894132 -s 20 -d -1 -p DSR -e 92 -c 2 -a 0 -i 2 -k RTR
h -t 15.048894132 -s 20 -d -1 -p DSR -e 92 -c 2 -a 0 -i 2 -k RTR
+ -t 15.049181151 -s 22 -d -1 -p DSR -e 68 -c 2 -a 0 -i 2 -k RTR 
- -t 15.049181151 -s 22 -d -1 -p DSR -e 68 -c 2 -a 0 -i 2 -k RTR
h -t 15.049181151 -s 22 -d -1 -p DSR -e 68 -c 2 -a 0 -i 2 -k RTR
+ -t 15.049232210 -s 7 -d -1 -p DSR -e 68 -c 2 -a 0 -i 2 -k RTR 
- -t 15.049232210 -s 7 -d -1 -p DSR -e 68 -c 2 -a 0 -i 2 -k RTR
h -t 15.049232210 -s 7 -d -1 -p DSR -e 68 -c 2 -a 0 -i 2 -k RTR
+ -t 15.049280232 -s 25 -d -1 -p DSR -e 48 -c 2 -a 0 -i 2 -k RTR 
- -t 15.049280232 -s 25 -d -1 -p DSR -e 48 -c 2 -a 0 -i 2 -k RTR
h -t 15.049280232 -s 25 -d -1 -p DSR -e 48 -c 2 -a 0 -i 2 -k RTR
+ -t 15.049336841 -s 24 -d -1 -p DSR -e 68 -c 2 -a 0 -i 2 -k RTR 
- -t 15.049336841 -s 24 -d -1 -p DSR -e 68 -c 2 -a 0 -i 2 -k RTR
h -t 15.049336841 -s 24 -d -1 -p DSR -e 68 -c 2 -a 0 -i 2 -k RTR
+ -t 15.049824643 -s 26 -d -1 -p DSR -e 68 -c 2 -a 0 -i 2 -k RTR 
- -t 15.049824643 -s 26 -d -1 -p DSR -e 68 -c 2 -a 0 -i 2 -k RTR
h -t 15.049824643 -s 26 -d -1 -p DSR -e 68 -c 2 -a 0 -i 2 -k RTR
+ -t 15.049832123 -s 15 -d -1 -p DSR -e 92 -c 2 -a 0 -i 2 -k RTR 
- -t 15.049832123 -s 15 -d -1 -p DSR -e 92 -c 2 -a 0 -i 2 -k RTR
h -t 15.049832123 -s 15 -d -1 -p DSR -e 92 -c 2 -a 0 -i 2 -k RTR
+ -t 15.051135671 -s 5 -d -1 -p DSR -e 68 -c 2 -a 0 -i 2 -k RTR 
- -t 15.051135671 -s 5 -d -1 -p DSR -e 68 -c 2 -a 0 -i 2 -k RTR
h -t 15.051135671 -s 5 -d -1 -p DSR -e 68 -c 2 -a 0 -i 2 -k RTR
+ -t 15.051455570 -s 8 -d -1 -p DSR -e 68 -c 2 -a 0 -i 2 -k RTR 
- -t 15.051455570 -s 8 -d -1 -p DSR -e 68 -c 2 -a 0 -i 2 -k RTR
h -t 15.051455570 -s 8 -d -1 -p DSR -e 68 -c 2 -a 0 -i 2 -k RTR
+ -t 15.051717646 -s 13 -d -1 -p DSR -e 92 -c 2 -a 0 -i 2 -k RTR 
- -t 15.051717646 -s 13 -d -1 -p DSR -e 92 -c 2 -a 0 -i 2 -k RTR
h -t 15.051717646 -s 13 -d -1 -p DSR -e 92 -c 2 -a 0 -i 2 -k RTR
+ -t 15.052350624 -s 2 -d -1 -p DSR -e 68 -c 2 -a 0 -i 2 -k RTR 
- -t 15.052350624 -s 2 -d -1 -p DSR -e 68 -c 2 -a 0 -i 2 -k RTR
h -t 15.052350624 -s 2 -d -1 -p DSR -e 68 -c 2 -a 0 -i 2 -k RTR
+ -t 15.053777244 -s 16 -d -1 -p DSR -e 92 -c 2 -a 0 -i 2 -k RTR 
- -t 15.053777244 -s 16 -d -1 -p DSR -e 92 -c 2 -a 0 -i 2 -k RTR
h -t 15.053777244 -s 16 -d -1 -p DSR -e 92 -c 2 -a 0 -i 2 -k RTR
+ -t 15.054205475 -s 19 -d -1 -p DSR -e 92 -c 2 -a 0 -i 2 -k RTR 
- -t 15.054205475 -s 19 -d -1 -p DSR -e 92 -c 2 -a 0 -i 2 -k RTR
h -t 15.054205475 -s 19 -d -1 -p DSR -e 92 -c 2 -a 0 -i 2 -k RTR
+ -t 15.058245751 -s 18 -d 21 -p DSR -e 60 -c 2 -a 0 -i 5 -k RTR 
- -t 15.058245751 -s 18 -d 21 -p DSR -e 60 -c 2 -a 0 -i 5 -k RTR
h -t 15.058245751 -s 18 -d 21 -p DSR -e 60 -c 2 -a 0 -i 5 -k RTR
+ -t 15.059175975 -s 11 -d -1 -p DSR -e 92 -c 2 -a 0 -i 2 -k RTR 
- -t 15.059175975 -s 11 -d -1 -p DSR -e 92 -c 2 -a 0 -i 2 -k RTR
h -t 15.059175975 -s 11 -d -1 -p DSR -e 92 -c 2 -a 0 -i 2 -k RTR
+ -t 15.059374416 -s 18 -d 10 -p DSR -e 60 -c 2 -a 0 -i 6 -k RTR 
- -t 15.059374416 -s 18 -d 10 -p DSR -e 60 -c 2 -a 0 -i 6 -k RTR
h -t 15.059374416 -s 18 -d 10 -p DSR -e 60 -c 2 -a 0 -i 6 -k RTR
+ -t 15.060363961 -s 18 -d 20 -p DSR -e 68 -c 2 -a 0 -i 7 -k RTR 
- -t 15.060363961 -s 18 -d 20 -p DSR -e 68 -c 2 -a 0 -i 7 -k RTR
h -t 15.060363961 -s 18 -d 20 -p DSR -e 68 -c 2 -a 0 -i 7 -k RTR
+ -t 15.060825108 -s 14 -d -1 -p DSR -e 92 -c 2 -a 0 -i 2 -k RTR 
- -t 15.060825108 -s 14 -d -1 -p DSR -e 92 -c 2 -a 0 -i 2 -k RTR
h -t 15.060825108 -s 14 -d -1 -p DSR -e 92 -c 2 -a 0 -i 2 -k RTR
+ -t 15.061544803 -s 21 -d 6 -p DSR -e 60 -c 2 -a 0 -i 5 -k RTR 
- -t 15.061544803 -s 21 -d 6 -p DSR -e 60 -c 2 -a 0 -i 5 -k RTR
h -t 15.061544803 -s 21 -d 6 -p DSR -e 60 -c 2 -a 0 -i 5 -k RTR
+ -t 15.064677215 -s 20 -d 23 -p DSR -e 68 -c 2 -a 0 -i 7 -k RTR 
- -t 15.064677215 -s 20 -d 23 -p DSR -e 68 -c 2 -a 0 -i 7 -k RTR
h -t 15.064677215 -s 20 -d 23 -p DSR -e 68 -c 2 -a 0 -i 7 -k RTR
+ -t 15.069552131 -s 17 -d -1 -p DSR -e 120 -c 2 -a 0 -i 2 -k RTR 
- -t 15.069552131 -s 17 -d -1 -p DSR -e 120 -c 2 -a 0 -i 2 -k RTR
h -t 15.069552131 -s 17 -d -1 -p DSR -e 120 -c 2 -a 0 -i 2 -k RTR
+ -t 15.069738360 -s 10 -d 27 -p DSR -e 60 -c 2 -a 0 -i 6 -k RTR 
- -t 15.069738360 -s 10 -d 27 -p DSR -e 60 -c 2 -a 0 -i 6 -k RTR
h -t 15.069738360 -s 10 -d 27 -p DSR -e 60 -c 2 -a 0 -i 6 -k RTR
+ -t 15.070533037 -s 18 -d 22 -p DSR -e 60 -c 2 -a 0 -i 8 -k RTR 
- -t 15.070533037 -s 18 -d 22 -p DSR -e 60 -c 2 -a 0 -i 8 -k RTR
h -t 15.070533037 -s 18 -d 22 -p DSR -e 60 -c 2 -a 0 -i 8 -k RTR
+ -t 15.071697068 -s 6 -d 0 -p DSR -e 60 -c 2 -a 0 -i 5 -k RTR 
- -t 15.071697068 -s 6 -d 0 -p DSR -e 60 -c 2 -a 0 -i 5 -k RTR
h -t 15.071697068 -s 6 -d 0 -p DSR -e 60 -c 2 -a 0 -i 5 -k RTR
+ -t 15.073444571 -s 18 -d 19 -p DSR -e 68 -c 2 -a 0 -i 9 -k RTR 
- -t 15.073444571 -s 18 -d 19 -p DSR -e 68 -c 2 -a 0 -i 9 -k RTR
h -t 15.073444571 -s 18 -d 19 -p DSR -e 68 -c 2 -a 0 -i 9 -k RTR
+ -t 15.074274112 -s 0 -d -1 -p cbr -e 512 -c 2 -a 0 -i 10 -k AGT 
- -t 15.074274112 -s 0 -d -1 -p cbr -e 512 -c 2 -a 0 -i 10 -k AGT
h -t 15.074274112 -s 0 -d -1 -p cbr -e 512 -c 2 -a 0 -i 10 -k AGT
+ -t 15.076962856 -s 27 -d 0 -p DSR -e 60 -c 2 -a 0 -i 6 -k RTR 
- -t 15.076962856 -s 27 -d 0 -p DSR -e 60 -c 2 -a 0 -i 6 -k RTR
h -t 15.076962856 -s 27 -d 0 -p DSR -e 60 -c 2 -a 0 -i 6 -k RTR
+ -t 15.078961327 -s 0 -d 6 -p cbr -e 556 -c 2 -a 0 -i 0 -k RTR 
- -t 15.078961327 -s 0 -d 6 -p cbr -e 556 -c 2 -a 0 -i 0 -k RTR
h -t 15.078961327 -s 0 -d 6 -p cbr -e 556 -c 2 -a 0 -i 0 -k RTR
+ -t 15.086861685 -s 23 -d 27 -p DSR -e 68 -c 2 -a 0 -i 7 -k RTR 
- -t 15.086861685 -s 23 -d 27 -p DSR -e 68 -c 2 -a 0 -i 7 -k RTR
h -t 15.086861685 -s 23 -d 27 -p DSR -e 68 -c 2 -a 0 -i 7 -k RTR
+ -t 15.090222764 -s 22 -d 4 -p DSR -e 60 -c 2 -a 0 -i 8 -k RTR 
- -t 15.090222764 -s 22 -d 4 -p DSR -e 60 -c 2 -a 0 -i 8 -k RTR
h -t 15.090222764 -s 22 -d 4 -p DSR -e 60 -c 2 -a 0 -i 8 -k RTR
+ -t 15.092365431 -s 19 -d 23 -p DSR -e 68 -c 2 -a 0 -i 9 -k RTR 
- -t 15.092365431 -s 19 -d 23 -p DSR -e 68 -c 2 -a 0 -i 9 -k RTR
h -t 15.092365431 -s 19 -d 23 -p DSR -e 68 -c 2 -a 0 -i 9 -k RTR
+ -t 15.093212327 -s 18 -d 11 -p DSR -e 68 -c 2 -a 0 -i 12 -k RTR 
- -t 15.093212327 -s 18 -d 11 -p DSR -e 68 -c 2 -a 0 -i 12 -k RTR
h -t 15.093212327 -s 18 -d 11 -p DSR -e 68 -c 2 -a 0 -i 12 -k RTR
+ -t 15.094768609 -s 4 -d 0 -p DSR -e 60 -c 2 -a 0 -i 8 -k RTR 
- -t 15.094768609 -s 4 -d 0 -p DSR -e 60 -c 2 -a 0 -i 8 -k RTR
h -t 15.094768609 -s 4 -d 0 -p DSR -e 60 -c 2 -a 0 -i 8 -k RTR
+ -t 15.096871355 -s 27 -d 0 -p DSR -e 68 -c 2 -a 0 -i 7 -k RTR 
- -t 15.096871355 -s 27 -d 0 -p DSR -e 68 -c 2 -a 0 -i 7 -k RTR
h -t 15.096871355 -s 27 -d 0 -p DSR -e 68 -c 2 -a 0 -i 7 -k RTR
+ -t 15.097843377 -s 18 -d 16 -p DSR -e 68 -c 2 -a 0 -i 13 -k RTR 
- -t 15.097843377 -s 18 -d 16 -p DSR -e 68 -c 2 -a 0 -i 13 -k RTR
h -t 15.097843377 -s 18 -d 16 -p DSR -e 68 -c 2 -a 0 -i 13 -k RTR
+ -t 15.101042789 -s 11 -d 7 -p DSR -e 68 -c 2 -a 0 -i 12 -k RTR 
- -t 15.101042789 -s 11 -d 7 -p DSR -e 68 -c 2 -a 0 -i 12 -k RTR
h -t 15.101042789 -s 11 -d 7 -p DSR -e 68 -c 2 -a 0 -i 12 -k RTR
+ -t 15.104361977 -s 0 -d -1 -p cbr -e 512 -c 2 -a 0 -i 14 -k AGT 
- -t 15.104361977 -s 0 -d -1 -p cbr -e 512 -c 2 -a 0 -i 14 -k AGT
h -t 15.104361977 -s 0 -d -1 -p cbr -e 512 -c 2 -a 0 -i 14 -k AGT
+ -t 15.104361977 -s 0 -d 6 -p cbr -e 532 -c 2 -a 0 -i 14 -k RTR 
- -t 15.104361977 -s 0 -d 6 -p cbr -e 532 -c 2 -a 0 -i 14 -k RTR
h -t 15.104361977 -s 0 -d 6 -p cbr -e 532 -c 2 -a 0 -i 14 -k RTR
+ -t 15.106528361 -s 16 -d 23 -p DSR -e 68 -c 2 -a 0 -i 13 -k RTR 
- -t 15.106528361 -s 16 -d 23 -p DSR -e 68 -c 2 -a 0 -i 13 -k RTR
h -t 15.106528361 -s 16 -d 23 -p DSR -e 68 -c 2 -a 0 -i 13 -k RTR
+ -t 15.108630694 -s 23 -d 27 -p DSR -e 68 -c 2 -a 0 -i 9 -k RTR 
- -t 15.108630694 -s 23 -d 27 -p DSR -e 68 -c 2 -a 0 -i 9 -k RTR
h -t 15.108630694 -s 23 -d 27 -p DSR -e 68 -c 2 -a 0 -i 9 -k RTR
+ -t 15.108961327 -s 0 -d 6 -p cbr -e 556 -c 2 -a 0 -i 3 -k RTR 
- -t 15.108961327 -s 0 -d 6 -p cbr -e 556 -c 2 -a 0 -i 3 -k RTR
h -t 15.108961327 -s 0 -d 6 -p cbr -e 556 -c 2 -a 0 -i 3 -k RTR
+ -t 15.110732694 -s 27 -d 0 -p DSR -e 68 -c 2 -a 0 -i 9 -k RTR 
- -t 15.110732694 -s 27 -d 0 -p DSR -e 68 -c 2 -a 0 -i 9 -k RTR
h -t 15.110732694 -s 27 -d 0 -p DSR -e 68 -c 2 -a 0 -i 9 -k RTR
+ -t 15.115602140 -s 23 -d 27 -p DSR -e 68 -c 2 -a 0 -i 13 -k RTR 
- -t 15.115602140 -s 23 -d 27 -p DSR -e 68 -c 2 -a 0 -i 13 -k RTR
h -t 15.115602140 -s 23 -d 27 -p DSR -e 68 -c 2 -a 0 -i 13 -k RTR
+ -t 15.117704140 -s 27 -d 0 -p DSR -e 68 -c 2 -a 0 -i 13 -k RTR 
- -t 15.117704140 -s 27 -d 0 -p DSR -e 68 -c 2 -a 0 -i 13 -k RTR
h -t 15.117704140 -s 27 -d 0 -p DSR -e 68 -c 2 -a 0 -i 13 -k RTR
+ -t 15.122353456 -s 7 -d 1 -p DSR -e 68 -c 2 -a 0 -i 12 -k RTR 
- -t 15.122353456 -s 7 -d 1 -p DSR -e 68 -c 2 -a 0 -i 12 -k RTR
h -t 15.122353456 -s 7 -d 1 -p DSR -e 68 -c 2 -a 0 -i 12 -k RTR
+ -t 15.124355456 -s 1 -d 0 -p DSR -e 68 -c 2 -a 0 -i 12 -k RTR 
- -t 15.124355456 -s 1 -d 0 -p DSR -e 68 -c 2 -a 0 -i 12 -k RTR
h -t 15.124355456 -s 1 -d 0 -p DSR -e 68 -c 2 -a 0 -i 12 -k RTR
+ -t 15.134263456 -s 6 -d 21 -p cbr -e 556 -c 2 -a 0 -i 0 -k RTR 
- -t 15.134263456 -s 6 -d 21 -p cbr -e 556 -c 2 -a 0 -i 0 -k RTR
h -t 15.134263456 -s 6 -d 21 -p cbr -e 556 -c 2 -a 0 -i 0 -k RTR
+ -t 15.138961327 -s 0 -d 6 -p cbr -e 556 -c 2 -a 0 -i 10 -k RTR 
- -t 15.138961327 -s 0 -d 6 -p cbr -e 556 -c 2 -a 0 -i 10 -k RTR
h -t 15.138961327 -s 0 -d 6 -p cbr -e 556 -c 2 -a 0 -i 10 -k RTR
+ -t 15.140209693 -s 21 -d 18 -p cbr -e 556 -c 2 -a 0 -i 0 -k RTR 
- -t 15.140209693 -s 21 -d 18 -p cbr -e 556 -c 2 -a 0 -i 0 -k RTR
h -t 15.140209693 -s 21 -d 18 -p cbr -e 556 -c 2 -a 0 -i 0 -k RTR
r -t 15.146175929 -s 18 -d 18 -p cbr -e 512 -c 2 -a 0 -i 0 -k AGT
+ -t 15.146567391 -s 0 -d -1 -p cbr -e 512 -c 2 -a 0 -i 15 -k AGT 
- -t 15.146567391 -s 0 -d -1 -p cbr -e 512 -c 2 -a 0 -i 15 -k AGT
h -t 15.146567391 -s 0 -d -1 -p cbr -e 512 -c 2 -a 0 -i 15 -k AGT
+ -t 15.146567391 -s 0 -d 6 -p cbr -e 532 -c 2 -a 0 -i 15 -k RTR 
- -t 15.146567391 -s 0 -d 6 -p cbr -e 532 -c 2 -a 0 -i 15 -k RTR
h -t 15.146567391 -s 0 -d 6 -p cbr -e 532 -c 2 -a 0 -i 15 -k RTR
+ -t 15.152160558 -s 6 -d 21 -p cbr -e 532 -c 2 -a 0 -i 14 -k RTR 
- -t 15.152160558 -s 6 -d 21 -p cbr -e 532 -c 2 -a 0 -i 14 -k RTR
h -t 15.152160558 -s 6 -d 21 -p cbr -e 532 -c 2 -a 0 -i 14 -k RTR
+ -t 15.158094794 -s 21 -d 18 -p cbr -e 532 -c 2 -a 0 -i 14 -k RTR 
- -t 15.158094794 -s 21 -d 18 -p cbr -e 532 -c 2 -a 0 -i 14 -k RTR
h -t 15.158094794 -s 21 -d 18 -p cbr -e 532 -c 2 -a 0 -i 14 -k RTR
r -t 15.163929030 -s 18 -d 18 -p cbr -e 512 -c 2 -a 0 -i 14 -k AGT
+ -t 15.170065659 -s 6 -d 21 -p cbr -e 556 -c 2 -a 0 -i 3 -k RTR 
- -t 15.170065659 -s 6 -d 21 -p cbr -e 556 -c 2 -a 0 -i 3 -k RTR
h -t 15.170065659 -s 6 -d 21 -p cbr -e 556 -c 2 -a 0 -i 3 -k RTR
+ -t 15.176412325 -s 6 -d 21 -p cbr -e 556 -c 2 -a 0 -i 10 -k RTR 
- -t 15.176412325 -s 6 -d 21 -p cbr -e 556 -c 2 -a 0 -i 10 -k RTR
h -t 15.176412325 -s 6 -d 21 -p cbr -e 556 -c 2 -a 0 -i 10 -k RTR
+ -t 15.182358562 -s 21 -d 18 -p cbr -e 556 -c 2 -a 0 -i 3 -k RTR 
- -t 15.182358562 -s 21 -d 18 -p cbr -e 556 -c 2 -a 0 -i 3 -k RTR
h -t 15.182358562 -s 21 -d 18 -p cbr -e 556 -c 2 -a 0 -i 3 -k RTR
r -t 15.188544798 -s 18 -d 18 -p cbr -e 512 -c 2 -a 0 -i 3 -k AGT
+ -t 15.192013147 -s 0 -d -1 -p cbr -e 512 -c 2 -a 0 -i 16 -k AGT 
- -t 15.192013147 -s 0 -d -1 -p cbr -e 512 -c 2 -a 0 -i 16 -k AGT
h -t 15.192013147 -s 0 -d -1 -p cbr -e 512 -c 2 -a 0 -i 16 -k AGT
+ -t 15.192013147 -s 0 -d 6 -p cbr -e 532 -c 2 -a 0 -i 16 -k RTR 
- -t 15.192013147 -s 0 -d 6 -p cbr -e 532 -c 2 -a 0 -i 16 -k RTR
h -t 15.192013147 -s 0 -d 6 -p cbr -e 532 -c 2 -a 0 -i 16 -k RTR
+ -t 15.194349427 -s 6 -d 21 -p cbr -e 532 -c 2 -a 0 -i 15 -k RTR 
- -t 15.194349427 -s 6 -d 21 -p cbr -e 532 -c 2 -a 0 -i 15 -k RTR
h -t 15.194349427 -s 6 -d 21 -p cbr -e 532 -c 2 -a 0 -i 15 -k RTR
+ -t 15.200435663 -s 21 -d 18 -p cbr -e 556 -c 2 -a 0 -i 10 -k RTR 
- -t 15.200435663 -s 21 -d 18 -p cbr -e 556 -c 2 -a 0 -i 10 -k RTR
h -t 15.200435663 -s 21 -d 18 -p cbr -e 556 -c 2 -a 0 -i 10 -k RTR
r -t 15.206661899 -s 18 -d 18 -p cbr -e 512 -c 2 -a 0 -i 10 -k AGT
+ -t 15.212526528 -s 6 -d 21 -p cbr -e 532 -c 2 -a 0 -i 16 -k RTR 
- -t 15.212526528 -s 6 -d 21 -p cbr -e 532 -c 2 -a 0 -i 16 -k RTR
h -t 15.212526528 -s 6 -d 21 -p cbr -e 532 -c 2 -a 0 -i 16 -k RTR
+ -t 15.218260764 -s 21 -d 18 -p cbr -e 532 -c 2 -a 0 -i 15 -k RTR 
- -t 15.218260764 -s 21 -d 18 -p cbr -e 532 -c 2 -a 0 -i 15 -k RTR
h -t 15.218260764 -s 21 -d 18 -p cbr -e 532 -c 2 -a 0 -i 15 -k RTR
r -t 15.224035000 -s 18 -d 18 -p cbr -e 512 -c 2 -a 0 -i 15 -k AGT
+ -t 15.227648476 -s 0 -d -1 -p cbr -e 512 -c 2 -a 0 -i 17 -k AGT 
- -t 15.227648476 -s 0 -d -1 -p cbr -e 512 -c 2 -a 0 -i 17 -k AGT
h -t 15.227648476 -s 0 -d -1 -p cbr -e 512 -c 2 -a 0 -i 17 -k AGT
+ -t 15.227648476 -s 0 -d 6 -p cbr -e 532 -c 2 -a 0 -i 17 -k RTR 
- -t 15.227648476 -s 0 -d 6 -p cbr -e 532 -c 2 -a 0 -i 17 -k RTR
h -t 15.227648476 -s 0 -d 6 -p cbr -e 532 -c 2 -a 0 -i 17 -k RTR
+ -t 15.230654650 -s 21 -d 18 -p cbr -e 532 -c 2 -a 0 -i 16 -k RTR 
- -t 15.230654650 -s 21 -d 18 -p cbr -e 532 -c 2 -a 0 -i 16 -k RTR
h -t 15.230654650 -s 21 -d 18 -p cbr -e 532 -c 2 -a 0 -i 16 -k RTR
r -t 15.236828886 -s 18 -d 18 -p cbr -e 512 -c 2 -a 0 -i 16 -k AGT
+ -t 15.242873515 -s 6 -d 21 -p cbr -e 532 -c 2 -a 0 -i 17 -k RTR 
- -t 15.242873515 -s 6 -d 21 -p cbr -e 532 -c 2 -a 0 -i 17 -k RTR
h -t 15.242873515 -s 6 -d 21 -p cbr -e 532 -c 2 -a 0 -i 17 -k RTR
+ -t 15.248827751 -s 21 -d 18 -p cbr -e 532 -c 2 -a 0 -i 17 -k RTR 
- -t 15.248827751 -s 21 -d 18 -p cbr -e 532 -c 2 -a 0 -i 17 -k RTR
h -t 15.248827751 -s 21 -d 18 -p cbr -e 532 -c 2 -a 0 -i 17 -k RTR
r -t 15.254601987 -s 18 -d 18 -p cbr -e 512 -c 2 -a 0 -i 17 -k AGT
+ -t 15.280137706 -s 0 -d -1 -p cbr -e 512 -c 2 -a 0 -i 18 -k AGT 
- -t 15.280137706 -s 0 -d -1 -p cbr -e 512 -c 2 -a 0 -i 18 -k AGT
h -t 15.280137706 -s 0 -d -1 -p cbr -e 512 -c 2 -a 0 -i 18 -k AGT
+ -t 15.280137706 -s 0 -d 6 -p cbr -e 532 -c 2 -a 0 -i 18 -k RTR 
- -t 15.280137706 -s 0 -d 6 -p cbr -e 532 -c 2 -a 0 -i 18 -k RTR
h -t 15.280137706 -s 0 -d 6 -p cbr -e 532 -c 2 -a 0 -i 18 -k RTR
+ -t 15.285587706 -s 6 -d 21 -p cbr -e 532 -c 2 -a 0 -i 18 -k RTR 
- -t 15.285587706 -s 6 -d 21 -p cbr -e 532 -c 2 -a 0 -i 18 -k RTR
h -t 15.285587706 -s 6 -d 21 -p cbr -e 532 -c 2 -a 0 -i 18 -k RTR
+ -t 15.291501942 -s 21 -d 18 -p cbr -e 532 -c 2 -a 0 -i 18 -k RTR 
- -t 15.291501942 -s 21 -d 18 -p cbr -e 532 -c 2 -a 0 -i 18 -k RTR
h -t 15.291501942 -s 21 -d 18 -p cbr -e 532 -c 2 -a 0 -i 18 -k RTR
r -t 15.297676178 -s 18 -d 18 -p cbr -e 512 -c 2 -a 0 -i 18 -k AGT
+ -t 15.325205968 -s 0 -d -1 -p cbr -e 512 -c 2 -a 0 -i 19 -k AGT 
- -t 15.325205968 -s 0 -d -1 -p cbr -e 512 -c 2 -a 0 -i 19 -k AGT
h -t 15.325205968 -s 0 -d -1 -p cbr -e 512 -c 2 -a 0 -i 19 -k AGT
+ -t 15.325205968 -s 0 -d 6 -p cbr -e 532 -c 2 -a 0 -i 19 -k RTR 
- -t 15.325205968 -s 0 -d 6 -p cbr -e 532 -c 2 -a 0 -i 19 -k RTR
h -t 15.325205968 -s 0 -d 6 -p cbr -e 532 -c 2 -a 0 -i 19 -k RTR
+ -t 15.330715968 -s 6 -d 21 -p cbr -e 532 -c 2 -a 0 -i 19 -k RTR 
- -t 15.330715968 -s 6 -d 21 -p cbr -e 532 -c 2 -a 0 -i 19 -k RTR
h -t 15.330715968 -s 6 -d 21 -p cbr -e 532 -c 2 -a 0 -i 19 -k RTR
+ -t 15.336450205 -s 21 -d 18 -p cbr -e 532 -c 2 -a 0 -i 19 -k RTR 
- -t 15.336450205 -s 21 -d 18 -p cbr -e 532 -c 2 -a 0 -i 19 -k RTR
h -t 15.336450205 -s 21 -d 18 -p cbr -e 532 -c 2 -a 0 -i 19 -k RTR
r -t 15.342664441 -s 18 -d 18 -p cbr -e 512 -c 2 -a 0 -i 19 -k AGT
+ -t 15.353035563 -s 0 -d -1 -p cbr -e 512 -c 2 -a 0 -i 20 -k AGT 
- -t 15.353035563 -s 0 -d -1 -p cbr -e 512 -c 2 -a 0 -i 20 -k AGT
h -t 15.353035563 -s 0 -d -1 -p cbr -e 512 -c 2 -a 0 -i 20 -k AGT
+ -t 15.353035563 -s 0 -d 6 -p cbr -e 532 -c 2 -a 0 -i 20 -k RTR 
- -t 15.353035563 -s 0 -d 6 -p cbr -e 532 -c 2 -a 0 -i 20 -k RTR
h -t 15.353035563 -s 0 -d 6 -p cbr -e 532 -c 2 -a 0 -i 20 -k RTR
+ -t 15.358765563 -s 6 -d 21 -p cbr -e 532 -c 2 -a 0 -i 20 -k RTR 
- -t 15.358765563 -s 6 -d 21 -p cbr -e 532 -c 2 -a 0 -i 20 -k RTR
h -t 15.358765563 -s 6 -d 21 -p cbr -e 532 -c 2 -a 0 -i 20 -k RTR
+ -t 15.364979799 -s 21 -d 18 -p cbr -e 532 -c 2 -a 0 -i 20 -k RTR 
- -t 15.364979799 -s 21 -d 18 -p cbr -e 532 -c 2 -a 0 -i 20 -k RTR
h -t 15.364979799 -s 21 -d 18 -p cbr -e 532 -c 2 -a 0 -i 20 -k RTR
r -t 15.371094035 -s 18 -d 18 -p cbr -e 512 -c 2 -a 0 -i 20 -k AGT
+ -t 15.421749685 -s 0 -d -1 -p cbr -e 512 -c 2 -a 0 -i 21 -k AGT 
- -t 15.421749685 -s 0 -d -1 -p cbr -e 512 -c 2 -a 0 -i 21 -k AGT
h -t 15.421749685 -s 0 -d -1 -p cbr -e 512 -c 2 -a 0 -i 21 -k AGT
+ -t 15.421749685 -s 0 -d 6 -p cbr -e 532 -c 2 -a 0 -i 21 -k RTR 
- -t 15.421749685 -s 0 -d 6 -p cbr -e 532 -c 2 -a 0 -i 21 -k RTR
h -t 15.421749685 -s 0 -d 6 -p cbr -e 532 -c 2 -a 0 -i 21 -k RTR
+ -t 15.427219685 -s 6 -d 21 -p cbr -e 532 -c 2 -a 0 -i 21 -k RTR 
- -t 15.427219685 -s 6 -d 21 -p cbr -e 532 -c 2 -a 0 -i 21 -k RTR
h -t 15.427219685 -s 6 -d 21 -p cbr -e 532 -c 2 -a 0 -i 21 -k RTR
+ -t 15.432973921 -s 21 -d 18 -p cbr -e 532 -c 2 -a 0 -i 21 -k RTR 
- -t 15.432973921 -s 21 -d 18 -p cbr -e 532 -c 2 -a 0 -i 21 -k RTR
h -t 15.432973921 -s 21 -d 18 -p cbr -e 532 -c 2 -a 0 -i 21 -k RTR
r -t 15.438948157 -s 18 -d 18 -p cbr -e 512 -c 2 -a 0 -i 21 -k AGT
+ -t 15.479151857 -s 0 -d -1 -p cbr -e 512 -c 2 -a 0 -i 22 -k AGT 
- -t 15.479151857 -s 0 -d -1 -p cbr -e 512 -c 2 -a 0 -i 22 -k AGT
h -t 15.479151857 -s 0 -d -1 -p cbr -e 512 -c 2 -a 0 -i 22 -k AGT
+ -t 15.479151857 -s 0 -d 6 -p cbr -e 532 -c 2 -a 0 -i 22 -k RTR 
- -t 15.479151857 -s 0 -d 6 -p cbr -e 532 -c 2 -a 0 -i 22 -k RTR
h -t 15.479151857 -s 0 -d 6 -p cbr -e 532 -c 2 -a 0 -i 22 -k RTR
+ -t 15.484721857 -s 6 -d 21 -p cbr -e 532 -c 2 -a 0 -i 22 -k RTR 
- -t 15.484721857 -s 6 -d 21 -p cbr -e 532 -c 2 -a 0 -i 22 -k RTR
h -t 15.484721857 -s 6 -d 21 -p cbr -e 532 -c 2 -a 0 -i 22 -k RTR
+ -t 15.490676093 -s 21 -d 18 -p cbr -e 532 -c 2 -a 0 -i 22 -k RTR 
- -t 15.490676093 -s 21 -d 18 -p cbr -e 532 -c 2 -a 0 -i 22 -k RTR
h -t 15.490676093 -s 21 -d 18 -p cbr -e 532 -c 2 -a 0 -i 22 -k RTR
r -t 15.496970329 -s 18 -d 18 -p cbr -e 512 -c 2 -a 0 -i 22 -k AGT
+ -t 15.552097093 -s 0 -d -1 -p cbr -e 512 -c 2 -a 0 -i 23 -k AGT 
- -t 15.552097093 -s 0 -d -1 -p cbr -e 512 -c 2 -a 0 -i 23 -k AGT
h -t 15.552097093 -s 0 -d -1 -p cbr -e 512 -c 2 -a 0 -i 23 -k AGT
+ -t 15.552097093 -s 0 -d 6 -p cbr -e 532 -c 2 -a 0 -i 23 -k RTR 
- -t 15.552097093 -s 0 -d 6 -p cbr -e 532 -c 2 -a 0 -i 23 -k RTR
h -t 15.552097093 -s 0 -d 6 -p cbr -e 532 -c 2 -a 0 -i 23 -k RTR
+ -t 15.558007093 -s 6 -d 21 -p cbr -e 532 -c 2 -a 0 -i 23 -k RTR 
- -t 15.558007093 -s 6 -d 21 -p cbr -e 532 -c 2 -a 0 -i 23 -k RTR
h -t 15.558007093 -s 6 -d 21 -p cbr -e 532 -c 2 -a 0 -i 23 -k RTR
+ -t 15.563801329 -s 21 -d 18 -p cbr -e 532 -c 2 -a 0 -i 23 -k RTR 
- -t 15.563801329 -s 21 -d 18 -p cbr -e 532 -c 2 -a 0 -i 23 -k RTR
h -t 15.563801329 -s 21 -d 18 -p cbr -e 532 -c 2 -a 0 -i 23 -k RTR
r -t 15.569915565 -s 18 -d 18 -p cbr -e 512 -c 2 -a 0 -i 23 -k AGT
+ -t 15.595768838 -s 0 -d -1 -p cbr -e 512 -c 2 -a 0 -i 24 -k AGT 
- -t 15.595768838 -s 0 -d -1 -p cbr -e 512 -c 2 -a 0 -i 24 -k AGT
h -t 15.595768838 -s 0 -d -1 -p cbr -e 512 -c 2 -a 0 -i 24 -k AGT
+ -t 15.595768838 -s 0 -d 6 -p cbr -e 532 -c 2 -a 0 -i 24 -k RTR 
- -t 15.595768838 -s 0 -d 6 -p cbr -e 532 -c 2 -a 0 -i 24 -k RTR
h -t 15.595768838 -s 0 -d 6 -p cbr -e 532 -c 2 -a 0 -i 24 -k RTR
+ -t 15.601798838 -s 6 -d 21 -p cbr -e 532 -c 2 -a 0 -i 24 -k RTR 
- -t 15.601798838 -s 6 -d 21 -p cbr -e 532 -c 2 -a 0 -i 24 -k RTR
h -t 15.601798838 -s 6 -d 21 -p cbr -e 532 -c 2 -a 0 -i 24 -k RTR
+ -t 15.607693074 -s 21 -d 18 -p cbr -e 532 -c 2 -a 0 -i 24 -k RTR 
- -t 15.607693074 -s 21 -d 18 -p cbr -e 532 -c 2 -a 0 -i 24 -k RTR
h -t 15.607693074 -s 21 -d 18 -p cbr -e 532 -c 2 -a 0 -i 24 -k RTR
r -t 15.613447310 -s 18 -d 18 -p cbr -e 512 -c 2 -a 0 -i 24 -k AGT
+ -t 15.634120473 -s 0 -d -1 -p cbr -e 512 -c 2 -a 0 -i 25 -k AGT 
- -t 15.634120473 -s 0 -d -1 -p cbr -e 512 -c 2 -a 0 -i 25 -k AGT
h -t 15.634120473 -s 0 -d -1 -p cbr -e 512 -c 2 -a 0 -i 25 -k AGT
+ -t 15.634120473 -s 0 -d 6 -p cbr -e 532 -c 2 -a 0 -i 25 -k RTR 
- -t 15.634120473 -s 0 -d 6 -p cbr -e 532 -c 2 -a 0 -i 25 -k RTR
h -t 15.634120473 -s 0 -d 6 -p cbr -e 532 -c 2 -a 0 -i 25 -k RTR
+ -t 15.639630473 -s 6 -d 21 -p cbr -e 532 -c 2 -a 0 -i 25 -k RTR 
- -t 15.639630473 -s 6 -d 21 -p cbr -e 532 -c 2 -a 0 -i 25 -k RTR
h -t 15.639630473 -s 6 -d 21 -p cbr -e 532 -c 2 -a 0 -i 25 -k RTR
+ -t 15.645884709 -s 21 -d 18 -p cbr -e 532 -c 2 -a 0 -i 25 -k RTR 
- -t 15.645884709 -s 21 -d 18 -p cbr -e 532 -c 2 -a 0 -i 25 -k RTR
h -t 15.645884709 -s 21 -d 18 -p cbr -e 532 -c 2 -a 0 -i 25 -k RTR
r -t 15.652118945 -s 18 -d 18 -p cbr -e 512 -c 2 -a 0 -i 25 -k AGT
+ -t 15.682317392 -s 0 -d -1 -p cbr -e 512 -c 2 -a 0 -i 26 -k AGT 
- -t 15.682317392 -s 0 -d -1 -p cbr -e 512 -c 2 -a 0 -i 26 -k AGT
h -t 15.682317392 -s 0 -d -1 -p cbr -e 512 -c 2 -a 0 -i 26 -k AGT
+ -t 15.682317392 -s 0 -d 6 -p cbr -e 532 -c 2 -a 0 -i 26 -k RTR 
- -t 15.682317392 -s 0 -d 6 -p cbr -e 532 -c 2 -a 0 -i 26 -k RTR
h -t 15.682317392 -s 0 -d 6 -p cbr -e 532 -c 2 -a 0 -i 26 -k RTR
+ -t 15.688067392 -s 6 -d 21 -p cbr -e 532 -c 2 -a 0 -i 26 -k RTR 
- -t 15.688067392 -s 6 -d 21 -p cbr -e 532 -c 2 -a 0 -i 26 -k RTR
h -t 15.688067392 -s 6 -d 21 -p cbr -e 532 -c 2 -a 0 -i 26 -k RTR
+ -t 15.693981628 -s 21 -d 18 -p cbr -e 532 -c 2 -a 0 -i 26 -k RTR 
- -t 15.693981628 -s 21 -d 18 -p cbr -e 532 -c 2 -a 0 -i 26 -k RTR
h -t 15.693981628 -s 21 -d 18 -p cbr -e 532 -c 2 -a 0 -i 26 -k RTR
r -t 15.700155864 -s 18 -d 18 -p cbr -e 512 -c 2 -a 0 -i 26 -k AGT
+ -t 15.738165172 -s 0 -d -1 -p cbr -e 512 -c 2 -a 0 -i 27 -k AGT 
- -t 15.738165172 -s 0 -d -1 -p cbr -e 512 -c 2 -a 0 -i 27 -k AGT
h -t 15.738165172 -s 0 -d -1 -p cbr -e 512 -c 2 -a 0 -i 27 -k AGT
+ -t 15.738165172 -s 0 -d 6 -p cbr -e 532 -c 2 -a 0 -i 27 -k RTR 
- -t 15.738165172 -s 0 -d 6 -p cbr -e 532 -c 2 -a 0 -i 27 -k RTR
h -t 15.738165172 -s 0 -d 6 -p cbr -e 532 -c 2 -a 0 -i 27 -k RTR
+ -t 15.743875172 -s 6 -d 21 -p cbr -e 532 -c 2 -a 0 -i 27 -k RTR 
- -t 15.743875172 -s 6 -d 21 -p cbr -e 532 -c 2 -a 0 -i 27 -k RTR
h -t 15.743875172 -s 6 -d 21 -p cbr -e 532 -c 2 -a 0 -i 27 -k RTR
+ -t 15.750169408 -s 21 -d 18 -p cbr -e 532 -c 2 -a 0 -i 27 -k RTR 
- -t 15.750169408 -s 21 -d 18 -p cbr -e 532 -c 2 -a 0 -i 27 -k RTR
h -t 15.750169408 -s 21 -d 18 -p cbr -e 532 -c 2 -a 0 -i 27 -k RTR
r -t 15.756343644 -s 18 -d 18 -p cbr -e 512 -c 2 -a 0 -i 27 -k AGT
+ -t 15.786595073 -s 0 -d -1 -p cbr -e 512 -c 2 -a 0 -i 28 -k AGT 
- -t 15.786595073 -s 0 -d -1 -p cbr -e 512 -c 2 -a 0 -i 28 -k AGT
h -t 15.786595073 -s 0 -d -1 -p cbr -e 512 -c 2 -a 0 -i 28 -k AGT
+ -t 15.786595073 -s 0 -d 6 -p cbr -e 532 -c 2 -a 0 -i 28 -k RTR 
- -t 15.786595073 -s 0 -d 6 -p cbr -e 532 -c 2 -a 0 -i 28 -k RTR
h -t 15.786595073 -s 0 -d 6 -p cbr -e 532 -c 2 -a 0 -i 28 -k RTR
+ -t 15.792205073 -s 6 -d 21 -p cbr -e 532 -c 2 -a 0 -i 28 -k RTR 
- -t 15.792205073 -s 6 -d 21 -p cbr -e 532 -c 2 -a 0 -i 28 -k RTR
h -t 15.792205073 -s 6 -d 21 -p cbr -e 532 -c 2 -a 0 -i 28 -k RTR
+ -t 15.798419309 -s 21 -d 18 -p cbr -e 532 -c 2 -a 0 -i 28 -k RTR 
- -t 15.798419309 -s 21 -d 18 -p cbr -e 532 -c 2 -a 0 -i 28 -k RTR
h -t 15.798419309 -s 21 -d 18 -p cbr -e 532 -c 2 -a 0 -i 28 -k RTR
r -t 15.804253545 -s 18 -d 18 -p cbr -e 512 -c 2 -a 0 -i 28 -k AGT
+ -t 15.837305969 -s 0 -d -1 -p cbr -e 512 -c 2 -a 0 -i 29 -k AGT 
- -t 15.837305969 -s 0 -d -1 -p cbr -e 512 -c 2 -a 0 -i 29 -k AGT
h -t 15.837305969 -s 0 -d -1 -p cbr -e 512 -c 2 -a 0 -i 29 -k AGT
+ -t 15.837305969 -s 0 -d 6 -p cbr -e 532 -c 2 -a 0 -i 29 -k RTR 
- -t 15.837305969 -s 0 -d 6 -p cbr -e 532 -c 2 -a 0 -i 29 -k RTR
h -t 15.837305969 -s 0 -d 6 -p cbr -e 532 -c 2 -a 0 -i 29 -k RTR
+ -t 15.842835969 -s 6 -d 21 -p cbr -e 532 -c 2 -a 0 -i 29 -k RTR 
- -t 15.842835969 -s 6 -d 21 -p cbr -e 532 -c 2 -a 0 -i 29 -k RTR
h -t 15.842835969 -s 6 -d 21 -p cbr -e 532 -c 2 -a 0 -i 29 -k RTR
+ -t 15.848750205 -s 21 -d 18 -p cbr -e 532 -c 2 -a 0 -i 29 -k RTR 
- -t 15.848750205 -s 21 -d 18 -p cbr -e 532 -c 2 -a 0 -i 29 -k RTR
h -t 15.848750205 -s 21 -d 18 -p cbr -e 532 -c 2 -a 0 -i 29 -k RTR
r -t 15.854564441 -s 18 -d 18 -p cbr -e 512 -c 2 -a 0 -i 29 -k AGT
+ -t 15.900880838 -s 0 -d -1 -p cbr -e 512 -c 2 -a 0 -i 30 -k AGT 
- -t 15.900880838 -s 0 -d -1 -p cbr -e 512 -c 2 -a 0 -i 30 -k AGT
h -t 15.900880838 -s 0 -d -1 -p cbr -e 512 -c 2 -a 0 -i 30 -k AGT
+ -t 15.900880838 -s 0 -d 6 -p cbr -e 532 -c 2 -a 0 -i 30 -k RTR 
- -t 15.900880838 -s 0 -d 6 -p cbr -e 532 -c 2 -a 0 -i 30 -k RTR
h -t 15.900880838 -s 0 -d 6 -p cbr -e 532 -c 2 -a 0 -i 30 -k RTR
+ -t 15.906850838 -s 6 -d 21 -p cbr -e 532 -c 2 -a 0 -i 30 -k RTR 
- -t 15.906850838 -s 6 -d 21 -p cbr -e 532 -c 2 -a 0 -i 30 -k RTR
h -t 15.906850838 -s 6 -d 21 -p cbr -e 532 -c 2 -a 0 -i 30 -k RTR
+ -t 15.912665074 -s 21 -d 18 -p cbr -e 532 -c 2 -a 0 -i 30 -k RTR 
- -t 15.912665074 -s 21 -d 18 -p cbr -e 532 -c 2 -a 0 -i 30 -k RTR
h -t 15.912665074 -s 21 -d 18 -p cbr -e 532 -c 2 -a 0 -i 30 -k RTR
r -t 15.918459310 -s 18 -d 18 -p cbr -e 512 -c 2 -a 0 -i 30 -k AGT
+ -t 15.953517120 -s 0 -d -1 -p cbr -e 512 -c 2 -a 0 -i 31 -k AGT 
- -t 15.953517120 -s 0 -d -1 -p cbr -e 512 -c 2 -a 0 -i 31 -k AGT
h -t 15.953517120 -s 0 -d -1 -p cbr -e 512 -c 2 -a 0 -i 31 -k AGT
+ -t 15.953517120 -s 0 -d 6 -p cbr -e 532 -c 2 -a 0 -i 31 -k RTR 
- -t 15.953517120 -s 0 -d 6 -p cbr -e 532 -c 2 -a 0 -i 31 -k RTR
h -t 15.953517120 -s 0 -d 6 -p cbr -e 532 -c 2 -a 0 -i 31 -k RTR