Sconfig 0.00000 tap: on snoop: rts? on errs? on
Sconfig 0.00000 salvage: on !bd replies? on
Sconfig 0.00000 grat error: on grat reply: on
Sconfig 0.00000 $reply for props: on ring 0 search: on
Sconfig 0.00000 using MOBICACHE
s 15.000000000 _0_ AGT  --- 0 cbr 512 [0 0 0 0] ------- [0:0 7:0 32 0] [0] 0 0
r 15.000000000 _0_ RTR  --- 0 cbr 512 [0 0 0 0] ------- [0:0 7:0 32 0] [0] 0 0
s 15.009523409 _0_ RTR  --- 1 DSR 32 [0 0 0 0] ------- [0:255 7:255 32 0] 1 [1 1] [0 1 0 0->0] [0 0 0 0->0]
r 15.010816075 _3_ RTR  --- 1 DSR 32 [0 ffffffff 0 800] ------- [0:255 7:255 32 0] 1 [1 1] [0 1 0 0->0] [0 0 0 0->0]
r 15.010816075 _1_ RTR  --- 1 DSR 32 [0 ffffffff 0 800] ------- [0:255 7:255 32 0] 1 [1 1] [0 1 0 0->0] [0 0 0 0->0]
s 15.025084387 _0_ AGT  --- 3 cbr 512 [0 0 0 0] ------- [0:0 7:0 32 0] [1] 0 0
r 15.025084387 _0_ RTR  --- 3 cbr 512 [0 0 0 0] ------- [0:0 7:0 32 0] [1] 0 0
s 15.071956459 _0_ RTR  --- 5 DSR 32 [0 0 0 0] ------- [0:255 7:255 32 0] 1 [1 2] [0 2 0 0->16] [0 0 0 0->0]
r 15.073209126 _3_ RTR  --- 5 DSR 32 [0 ffffffff 0 800] ------- [0:255 7:255 32 0] 1 [1 2] [0 2 0 0->16] [0 0 0 0->0]
r 15.073209126 _1_ RTR  --- 5 DSR 32 [0 ffffffff 0 800] ------- [0:255 7:255 32 0] 1 [1 2] [0 2 0 0->16] [0 0 0 0->0]
s 15.075654579 _0_ AGT  --- 7 cbr 512 [0 0 0 0] ------- [0:0 7:0 32 0] [2] 0 0
r 15.075654579 _0_ RTR  --- 7 cbr 512 [0 0 0 0] ------- [0:0 7:0 32 0] [2] 0 0
f 15.081160551 _1_ RTR  --- 5 DSR 48 [0 ffffffff 0 800] ------- [0:255 7:255 32 0] 2 [1 2] [0 2 0 0->16] [0 0 0 0->0]
f 15.081724634 _3_ RTR  --- 5 DSR 48 [0 ffffffff 0 800] ------- [0:255 7:255 32 0] 2 [1 2] [0 2 0 0->16] [0 0 0 0->0]
r 15.082641218 _0_ RTR  --- 5 DSR 48 [0 ffffffff 1 800] ------- [0:255 7:255 32 0] 2 [1 2] [0 2 0 0->16] [0 0 0 0->0]
r 15.082641218 _4_ RTR  --- 5 DSR 48 [0 ffffffff 1 800] ------- [0:255 7:255 32 0] 2 [1 2] [0 2 0 0->16] [0 0 0 0->0]
r 15.082641218 _2_ RTR  --- 5 DSR 48 [0 ffffffff 1 800] ------- [0:255 7:255 32 0] 2 [1 2] [0 2 0 0->16] [0 0 0 0->0]
f 15.082768279 _2_ RTR  --- 5 DSR 68 [0 ffffffff 1 800] ------- [0:255 7:255 32 0] 3 [1 2] [0 2 0 0->16] [0 0 0 0->0]
r 15.084408945 _1_ RTR  --- 5 DSR 68 [0 ffffffff 2 800] ------- [0:255 7:255 32 0] 3 [1 2] [0 2 0 0->16] [0 0 0 0->0]
r 15.084408945 _5_ RTR  --- 5 DSR 68 [0 ffffffff 2 800] ------- [0:255 7:255 32 0] 3 [1 2] [0 2 0 0->16] [0 0 0 0->0]
r 15.085724436 _0_ RTR  --- 5 DSR 48 [0 ffffffff 3 800] ------- [0:255 7:255 32 0] 2 [1 2] [0 2 0 0->16] [0 0 0 0->0]
r 15.085724436 _6_ RTR  --- 5 DSR 48 [0 ffffffff 3 800] ------- [0:255 7:255 32 0] 2 [1 2] [0 2 0 0->16] [0 0 0 0->0]
r 15.085724436 _4_ RTR  --- 5 DSR 48 [0 ffffffff 3 800] ------- [0:255 7:255 32 0] 2 [1 2] [0 2 0 0->16] [0 0 0 0->0]
f 15.089759412 _4_ RTR  --- 5 DSR 68 [0 ffffffff 1 800] ------- [0:255 7:255 32 0] 3 [1 2] [0 2 0 0->16] [0 0 0 0->0]
f 15.089785178 _5_ RTR  --- 5 DSR 92 [0 ffffffff 2 800] ------- [0:255 7:255 32 0] 4 [1 2] [0 2 0 0->16] [0 0 0 0->0]
r 15.091080078 _1_ RTR  --- 5 DSR 68 [0 ffffffff 4 800] ------- [0:255 7:255 32 0] 3 [1 2] [0 2 0 0->16] [0 0 0 0->0]
r 15.091080078 _3_ RTR  --- 5 DSR 68 [0 ffffffff 4 800] ------- [0:255 7:255 32 0] 3 [1 2] [0 2 0 0->16] [0 0 0 0->0]
r 15.091080078 _7_ RTR  --- 5 DSR 68 [0 ffffffff 4 800] ------- [0:255 7:255 32 0] 3 [1 2] [0 2 0 0->16] [0 0 0 0->0]
r 15.091080078 _5_ RTR  --- 5 DSR 68 [0 ffffffff 4 800] ------- [0:255 7:255 32 0] 3 [1 2] [0 2 0 0->16] [0 0 0 0->0]
r 15.092522745 _2_ RTR  --- 5 DSR 92 [0 ffffffff 5 800] ------- [0:255 7:255 32 0] 4 [1 2] [0 2 0 0->16] [0 0 0 0->0]
r 15.092522745 _4_ RTR  --- 5 DSR 92 [0 ffffffff 5 800] ------- [0:255 7:255 32 0] 4 [1 2] [0 2 0 0->16] [0 0 0 0->0]
r 15.092522745 _8_ RTR  --- 5 DSR 92 [0 ffffffff 5 800] ------- [0:255 7:255 32 0] 4 [1 2] [0 2 0 0->16] [0 0 0 0->0]
f 15.093935589 _6_ RTR  --- 5 DSR 68 [0 ffffffff 3 800] ------- [0:255 7:255 32 0] 3 [1 2] [0 2 0 0->16] [0 0 0 0->0]
r 15.095196256 _3_ RTR  --- 5 DSR 68 [0 ffffffff 6 800] ------- [0:255 7:255 32 0] 3 [1 2] [0 2 0 0->16] [0 0 0 0->0]
r 15.095196256 _7_ RTR  --- 5 DSR 68 [0 ffffffff 6 800] ------- [0:255 7:255 32 0] 3 [1 2] [0 2 0 0->16] [0 0 0 0->0]
s 15.100853592 _7_ RTR  --- 9 DSR 60 [0 0 0 0] ------- [7:255 0:255 254 4] 4 [0 2] [1 2 4 0->7] [0 0 0 0->0]
f 15.101008077 _8_ RTR  --- 5 DSR 120 [0 ffffffff 5 800] ------- [0:255 7:255 32 0] 5 [1 2] [0 2 0 0->16] [0 0 0 0->0]
r 15.102907592 _4_ RTR  --- 9 DSR 60 [13a 4 7 800] ------- [7:255 0:255 254 4] 4 [0 2] [1 2 4 0->7] [0 0 0 0->0]
f 15.102907592 _4_ RTR  --- 9 DSR 60 [13a 4 7 800] ------- [7:255 0:255 253 1] 4 [0 2] [1 2 4 0->7] [0 0 0 0->0]
s 15.103345538 _7_ RTR  --- 10 DSR 60 [0 0 0 0] ------- [7:255 0:255 254 6] 4 [0 2] [1 2 4 0->7] [0 0 0 0->0]
r 15.104965592 _1_ RTR  --- 9 DSR 60 [13a 1 4 800] ------- [7:255 0:255 253 1] 4 [0 2] [1 2 4 0->7] [0 0 0 0->0]
f 15.104965592 _1_ RTR  --- 9 DSR 60 [13a 1 4 800] ------- [7:255 0:255 252 0] 4 [0 2] [1 2 4 0->7] [0 0 0 0->0]
s 15.106453122 _0_ AGT  --- 11 cbr 512 [0 0 0 0] ------- [0:0 7:0 32 0] [3] 0 0
r 15.106453122 _0_ RTR  --- 11 cbr 512 [0 0 0 0] ------- [0:0 7:0 32 0] [3] 0 0
r 15.107143592 _0_ RTR  --- 9 DSR 60 [13a 0 1 800] ------- [7:255 0:255 252 0] 4 [0 2] [1 2 4 0->7] [0 0 0 0->0]
SFESTs 15.107143592 _0_ 0 [0 -> 7] 1(1) to 1 [0 |1 4 7 ]
SFESTs 15.107143592 _0_ 3 [0 -> 7] 1(1) to 1 [0 |1 4 7 ]
SFESTs 15.107143592 _0_ 7 [0 -> 7] 1(1) to 1 [0 |1 4 7 ]
SFs 15.107143592 _0_ 11 [0 -> 7] 1(0) to 1 
s 15.107143592 _0_ RTR  --- 0 cbr 556 [0 0 0 0] ------- [0:0 7:0 32 1] [0] 0 0
r 15.109175082 _5_ RTR  --- 5 DSR 120 [0 ffffffff 8 800] ------- [0:255 7:255 32 0] 5 [1 2] [0 2 0 0->16] [0 0 0 0->0]
r 15.109175082 _7_ RTR  --- 5 DSR 120 [0 ffffffff 8 800] ------- [0:255 7:255 32 0] 5 [1 2] [0 2 0 0->16] [0 0 0 0->0]
r 15.111409082 _6_ RTR  --- 10 DSR 60 [13a 6 7 800] ------- [7:255 0:255 254 6] 4 [0 2] [1 2 4 0->7] [0 0 0 0->0]
f 15.111409082 _6_ RTR  --- 10 DSR 60 [13a 6 7 800] ------- [7:255 0:255 253 3] 4 [0 2] [1 2 4 0->7] [0 0 0 0->0]
s 15.112049730 _7_ RTR  --- 13 DSR 76 [0 0 0 0] ------- [7:255 0:255 254 8] 6 [0 2] [1 2 6 0->7] [0 0 0 0->0]
r 15.113487082 _3_ RTR  --- 10 DSR 60 [13a 3 6 800] ------- [7:255 0:255 253 3] 4 [0 2] [1 2 4 0->7] [0 0 0 0->0]
f 15.113487082 _3_ RTR  --- 10 DSR 60 [13a 3 6 800] ------- [7:255 0:255 252 0] 4 [0 2] [1 2 4 0->7] [0 0 0 0->0]
r 15.115978025 _8_ RTR  --- 13 DSR 76 [13a 8 7 800] ------- [7:255 0:255 254 8] 6 [0 2] [1 2 6 0->7] [0 0 0 0->0]
f 15.115978025 _8_ RTR  --- 13 DSR 76 [13a 8 7 800] ------- [7:255 0:255 253 5] 6 [0 2] [1 2 6 0->7] [0 0 0 0->0]
r 15.118044025 _5_ RTR  --- 13 DSR 76 [13a 5 8 800] ------- [7:255 0:255 253 5] 6 [0 2] [1 2 6 0->7] [0 0 0 0->0]
f 15.118044025 _5_ RTR  --- 13 DSR 76 [13a 5 8 800] ------- [7:255 0:255 252 2] 6 [0 2] [1 2 6 0->7] [0 0 0 0->0]
r 15.120550025 _2_ RTR  --- 13 DSR 76 [13a 2 5 800] ------- [7:255 0:255 252 2] 6 [0 2] [1 2 6 0->7] [0 0 0 0->0]
f 15.120550025 _2_ RTR  --- 13 DSR 76 [13a 2 5 800] ------- [7:255 0:255 251 1] 6 [0 2] [1 2 6 0->7] [0 0 0 0->0]
r 15.122796025 _1_ RTR  --- 13 DSR 76 [13a 1 2 800] ------- [7:255 0:255 251 1] 6 [0 2] [1 2 6 0->7] [0 0 0 0->0]
f 15.122796025 _1_ RTR  --- 13 DSR 76 [13a 1 2 800] ------- [7:255 0:255 250 0] 6 [0 2] [1 2 6 0->7] [0 0 0 0->0]
r 15.125322025 _0_ RTR  --- 13 DSR 76 [13a 0 1 800] ------- [7:255 0:255 250 0] 6 [0 2] [1 2 6 0->7] [0 0 0 0->0]
r 15.127330301 _0_ RTR  --- 10 DSR 60 [13a 0 3 800] ------- [7:255 0:255 252 0] 4 [0 2] [1 2 4 0->7] [0 0 0 0->0]
r 15.133416301 _1_ RTR  --- 0 cbr 556 [13a 1 0 800] ------- [0:0 7:0 32 1] [0] 1 0
f 15.133416301 _1_ RTR  --- 0 cbr 556 [13a 1 0 800] ------- [0:0 7:0 31 4] [0] 1 0
s 15.137143592 _0_ RTR  --- 3 cbr 556 [0 0 0 0] ------- [0:0 7:0 32 1] [1] 0 0
r 15.139562301 _4_ RTR  --- 0 cbr 556 [13a 4 1 800] ------- [0:0 7:0 31 4] [0] 2 0
f 15.139562301 _4_ RTR  --- 0 cbr 556 [13a 4 1 800] ------- [0:0 7:0 30 7] [0] 2 0
r 15.145648301 _7_ RTR  --- 0 cbr 556 [13a 7 4 800] ------- [0:0 7:0 30 7] [0] 3 0
r 15.145648301 _7_ AGT  --- 0 cbr 512 [13a 7 4 800] ------- [0:0 7:0 30 7] [0] 3 0
r 15.151939792 _1_ RTR  --- 3 cbr 556 [13a 1 0 800] ------- [0:0 7:0 32 1] [1] 1 0
f 15.151939792 _1_ RTR  --- 3 cbr 556 [13a 1 0 800] ------- [0:0 7:0 31 4] [1] 1 0
r 15.158165792 _4_ RTR  --- 3 cbr 556 [13a 4 1 800] ------- [0:0 7:0 31 4] [1] 2 0
f 15.158165792 _4_ RTR  --- 3 cbr 556 [13a 4 1 800] ------- [0:0 7:0 30 7] [1] 2 0
r 15.164251792 _7_ RTR  --- 3 cbr 556 [13a 7 4 800] ------- [0:0 7:0 30 7] [1] 3 0
r 15.164251792 _7_ AGT  --- 3 cbr 512 [13a 7 4 800] ------- [0:0 7:0 30 7] [1] 3 0
s 15.167143592 _0_ RTR  --- 7 cbr 556 [0 0 0 0] ------- [0:0 7:0 32 1] [2] 0 0
r 15.173025592 _1_ RTR  --- 7 cbr 556 [13a 1 0 800] ------- [0:0 7:0 32 1] [2] 1 0
f 15.173025592 _1_ RTR  --- 7 cbr 556 [13a 1 0 800] ------- [0:0 7:0 31 4] [2] 1 0
r 15.179071592 _4_ RTR  --- 7 cbr 556 [13a 4 1 800] ------- [0:0 7:0 31 4] [2] 2 0
f 15.179071592 _4_ RTR  --- 7 cbr 556 [13a 4 1 800] ------- [0:0 7:0 30 7] [2] 2 0
s 15.180268687 _0_ AGT  --- 14 cbr 512 [0 0 0 0] ------- [0:0 7:0 32 0] [4] 0 0
r 15.180268687 _0_ RTR  --- 14 cbr 512 [0 0 0 0] ------- [0:0 7:0 32 0] [4] 0 0
SFs 15.180268687 _0_ 14 [0 -> 7] 1(0) to 1 
s 15.180268687 _0_ RTR  --- 14 cbr 532 [0 0 0 0] ------- [0:0 7:0 32 1] [4] 0 0
r 15.185037592 _7_ RTR  --- 7 cbr 556 [13a 7 4 800] ------- [0:0 7:0 30 7] [2] 3 0
r 15.185037592 _7_ AGT  --- 7 cbr 512 [13a 7 4 800] ------- [0:0 7:0 30 7] [2] 3 0
r 15.191457082 _1_ RTR  --- 14 cbr 532 [13a 1 0 800] ------- [0:0 7:0 32 1] [4] 1 0
SFf 15.191457082 _1_ 14 [0 -> 7] 1 to 4
f 15.191457082 _1_ RTR  --- 14 cbr 532 [13a 1 0 800] ------- [0:0 7:0 31 4] [4] 1 0
s 15.197143592 _0_ RTR  --- 11 cbr 532 [0 0 0 0] ------- [0:0 7:0 32 1] [3] 0 0
r 15.197351082 _4_ RTR  --- 14 cbr 532 [13a 4 1 800] ------- [0:0 7:0 31 4] [4] 2 0
SFf 15.197351082 _4_ 14 [0 -> 7] 1 to 7
f 15.197351082 _4_ RTR  --- 14 cbr 532 [13a 4 1 800] ------- [0:0 7:0 30 7] [4] 2 0
r 15.203585082 _7_ RTR  --- 14 cbr 532 [13a 7 4 800] ------- [0:0 7:0 30 7] [4] 3 0
r 15.203585082 _7_ AGT  --- 14 cbr 512 [13a 7 4 800] ------- [0:0 7:0 30 7] [4] 3 0
r 15.209764573 _1_ RTR  --- 11 cbr 532 [13a 1 0 800] ------- [0:0 7:0 32 1] [3] 1 0
SFf 15.209764573 _1_ 11 [0 -> 7] 1 to 4
f 15.209764573 _1_ RTR  --- 11 cbr 532 [13a 1 0 800] ------- [0:0 7:0 31 4] [3] 1 0
r 15.215998573 _4_ RTR  --- 11 cbr 532 [13a 4 1 800] ------- [0:0 7:0 31 4] [3] 2 0
SFf 15.215998573 _4_ 11 [0 -> 7] 1 to 7
f 15.215998573 _4_ RTR  --- 11 cbr 532 [13a 4 1 800] ------- [0:0 7:0 30 7] [3] 2 0
r 15.221872573 _7_ RTR  --- 11 cbr 532 [13a 7 4 800] ------- [0:0 7:0 30 7] [3] 3 0
r 15.221872573 _7_ AGT  --- 11 cbr 512 [13a 7 4 800] ------- [0:0 7:0 30 7] [3] 3 0
s 15.235591356 _0_ AGT  --- 15 cbr 512 [0 0 0 0] ------- [0:0 7:0 32 0] [5] 0 0
r 15.235591356 _0_ RTR  --- 15 cbr 512 [0 0 0 0] ------- [0:0 7:0 32 0] [5] 0 0
SFs 15.235591356 _0_ 15 [0 -> 7] 1(0) to 1 
s 15.235591356 _0_ RTR  --- 15 cbr 532 [0 0 0 0] ------- [0:0 7:0 32 1] [5] 0 0
r 15.241461356 _1_ RTR  --- 15 cbr 532 [13a 1 0 800] ------- [0:0 7:0 32 1] [5] 1 0
SFf 15.241461356 _1_ 15 [0 -> 7] 1 to 4
f 15.241461356 _1_ RTR  --- 15 cbr 532 [13a 1 0 800] ------- [0:0 7:0 31 4] [5] 1 0
r 15.247595356 _4_ RTR  --- 15 cbr 532 [13a 4 1 800] ------- [0:0 7:0 31 4] [5] 2 0
SFf 15.247595356 _4_ 15 [0 -> 7] 1 to 7
f 15.247595356 _4_ RTR  --- 15 cbr 532 [13a 4 1 800] ------- [0:0 7:0 30 7] [5] 2 0
r 15.253729356 _7_ RTR  --- 15 cbr 532 [13a 7 4 800] ------- [0:0 7:0 30 7] [5] 3 0
r 15.253729356 _7_ AGT  --- 15 cbr 512 [13a 7 4 800] ------- [0:0 7:0 30 7] [5] 3 0
s 15.291025569 _0_ AGT  --- 16 cbr 512 [0 0 0 0] ------- [0:0 7:0 32 0] [6] 0 0
r 15.291025569 _0_ RTR  --- 16 cbr 512 [0 0 0 0] ------- [0:0 7:0 32 0] [6] 0 0
SFs 15.291025569 _0_ 16 [0 -> 7] 1(0) to 1 
s 15.291025569 _0_ RTR  --- 16 cbr 532 [0 0 0 0] ------- [0:0 7:0 32 1] [6] 0 0
r 15.296735569 _1_ RTR  --- 16 cbr 532 [13a 1 0 800] ------- [0:0 7:0 32 1] [6] 1 0
SFf 15.296735569 _1_ 16 [0 -> 7] 1 to 4
f 15.296735569 _1_ RTR  --- 16 cbr 532 [13a 1 0 800] ------- [0:0 7:0 31 4] [6] 1 0
r 15.302769569 _4_ RTR  --- 16 cbr 532 [13a 4 1 800] ------- [0:0 7:0 31 4] [6] 2 0
SFf 15.302769569 _4_ 16 [0 -> 7] 1 to 7
f 15.302769569 _4_ RTR  --- 16 cbr 532 [13a 4 1 800] ------- [0:0 7:0 30 7] [6] 2 0
r 15.308863569 _7_ RTR  --- 16 cbr 532 [13a 7 4 800] ------- [0:0 7:0 30 7] [6] 3 0
r 15.308863569 _7_ AGT  --- 16 cbr 512 [13a 7 4 800] ------- [0:0 7:0 30 7] [6] 3 0
s 15.340790011 _0_ AGT  --- 17 cbr 512 [0 0 0 0] ------- [0:0 7:0 32 0] [7] 0 0
r 15.340790011 _0_ RTR  --- 17 cbr 512 [0 0 0 0] ------- [0:0 7:0 32 0] [7] 0 0
SFs 15.340790011 _0_ 17 [0 -> 7] 1(0) to 1 
s 15.340790011 _0_ RTR  --- 17 cbr 532 [0 0 0 0] ------- [0:0 7:0 32 1] [7] 0 0
r 15.346500011 _1_ RTR  --- 17 cbr 532 [13a 1 0 800] ------- [0:0 7:0 32 1] [7] 1 0
SFf 15.346500011 _1_ 17 [0 -> 7] 1 to 4
f 15.346500011 _1_ RTR  --- 17 cbr 532 [13a 1 0 800] ------- [0:0 7:0 31 4] [7] 1 0
r 15.352254011 _4_ RTR  --- 17 cbr 532 [13a 4 1 800] ------- [0:0 7:0 31 4] [7] 2 0
SFf 15.352254011 _4_ 17 [0 -> 7] 1 to 7
f 15.352254011 _4_ RTR  --- 17 cbr 532 [13a 4 1 800] ------- [0:0 7:0 30 7] [7] 2 0
r 15.358288011 _7_ RTR  --- 17 cbr 532 [13a 7 4 800] ------- [0:0 7:0 30 7] [7] 3 0
r 15.358288011 _7_ AGT  --- 17 cbr 512 [13a 7 4 800] ------- [0:0 7:0 30 7] [7] 3 0
s 15.391236716 _0_ AGT  --- 18 cbr 512 [0 0 0 0] ------- [0:0 7:0 32 0] [8] 0 0
r 15.391236716 _0_ RTR  --- 18 cbr 512 [0 0 0 0] ------- [0:0 7:0 32 0] [8] 0 0
SFs 15.391236716 _0_ 18 [0 -> 7] 1(0) to 1 
s 15.391236716 _0_ RTR  --- 18 cbr 532 [0 0 0 0] ------- [0:0 7:0 32 1] [8] 0 0
r 15.397146716 _1_ RTR  --- 18 cbr 532 [13a 1 0 800] ------- [0:0 7:0 32 1] [8] 1 0
SFf 15.397146716 _1_ 18 [0 -> 7] 1 to 4
f 15.397146716 _1_ RTR  --- 18 cbr 532 [13a 1 0 800] ------- [0:0 7:0 31 4] [8] 1 0
r 15.403200716 _4_ RTR  --- 18 cbr 532 [13a 4 1 800] ------- [0:0 7:0 31 4] [8] 2 0
SFf 15.403200716 _4_ 18 [0 -> 7] 1 to 7
f 15.403200716 _4_ RTR  --- 18 cbr 532 [13a 4 1 800] ------- [0:0 7:0 30 7] [8] 2 0
r 15.409054716 _7_ RTR  --- 18 cbr 532 [13a 7 4 800] ------- [0:0 7:0 30 7] [8] 3 0
r 15.409054716 _7_ AGT  --- 18 cbr 512 [13a 7 4 800] ------- [0:0 7:0 30 7] [8] 3 0
s 15.456970015 _0_ AGT  --- 19 cbr 512 [0 0 0 0] ------- [0:0 7:0 32 0] [9] 0 0
r 15.456970015 _0_ RTR  --- 19 cbr 512 [0 0 0 0] ------- [0:0 7:0 32 0] [9] 0 0
SFs 15.456970015 _0_ 19 [0 -> 7] 1(0) to 1 
s 15.456970015 _0_ RTR  --- 19 cbr 532 [0 0 0 0] ------- [0:0 7:0 32 1] [9] 0 0
r 15.462700015 _1_ RTR  --- 19 cbr 532 [13a 1 0 800] ------- [0:0 7:0 32 1] [9] 1 0
SFf 15.462700015 _1_ 19 [0 -> 7] 1 to 4
f 15.462700015 _1_ RTR  --- 19 cbr 532 [13a 1 0 800] ------- [0:0 7:0 31 4] [9] 1 0
r 15.468514015 _4_ RTR  --- 19 cbr 532 [13a 4 1 800] ------- [0:0 7:0 31 4] [9] 2 0
SFf 15.468514015 _4_ 19 [0 -> 7] 1 to 7
f 15.468514015 _4_ RTR  --- 19 cbr 532 [13a 4 1 800] ------- [0:0 7:0 30 7] [9] 2 0
r 15.474608015 _7_ RTR  --- 19 cbr 532 [13a 7 4 800] ------- [0:0 7:0 30 7] [9] 3 0
r 15.474608015 _7_ AGT  --- 19 cbr 512 [13a 7 4 800] ------- [0:0 7:0 30 7] [9] 3 0
s 15.489808668 _0_ AGT  --- 20 cbr 512 [0 0 0 0] ------- [0:0 7:0 32 0] [10] 0 0
r 15.489808668 _0_ RTR  --- 20 cbr 512 [0 0 0 0] ------- [0:0 7:0 32 0] [10] 0 0
SFs 15.489808668 _0_ 20 [0 -> 7] 1(0) to 1 
s 15.489808668 _0_ RTR  --- 20 cbr 532 [0 0 0 0] ------- [0:0 7:0 32 1] [10] 0 0
r 15.495438668 _1_ RTR  --- 20 cbr 532 [13a 1 0 800] ------- [0:0 7:0 32 1] [10] 1 0
SFf 15.495438668 _1_ 20 [0 -> 7] 1 to 4
f 15.495438668 _1_ RTR  --- 20 cbr 532 [13a 1 0 800] ------- [0:0 7:0 31 4] [10] 1 0
r 15.501352668 _4_ RTR  --- 20 cbr 532 [13a 4 1 800] ------- [0:0 7:0 31 4] [10] 2 0
SFf 15.501352668 _4_ 20 [0 -> 7] 1 to 7
f 15.501352668 _4_ RTR  --- 20 cbr 532 [13a 4 1 800] ------- [0:0 7:0 30 7] [10] 2 0
r 15.507446668 _7_ RTR  --- 20 cbr 532 [13a 7 4 800] ------- [0:0 7:0 30 7] [10] 3 0
r 15.507446668 _7_ AGT  --- 20 cbr 512 [13a 7 4 800] ------- [0:0 7:0 30 7] [10] 3 0
s 15.564067439 _0_ AGT  --- 21 cbr 512 [0 0 0 0] ------- [0:0 7:0 32 0] [11] 0 0
r 15.564067439 _0_ RTR  --- 21 cbr 512 [0 0 0 0] ------- [0:0 7:0 32 0] [11] 0 0
SFs 15.564067439 _0_ 21 [0 -> 7] 1(0) to 1 
s 15.564067439 _0_ RTR  --- 21 cbr 532 [0 0 0 0] ------- [0:0 7:0 32 1] [11] 0 0
r 15.569837439 _1_ RTR  --- 21 cbr 532 [13a 1 0 800] ------- [0:0 7:0 32 1] [11] 1 0
SFf 15.569837439 _1_ 21 [0 -> 7] 1 to 4
f 15.569837439 _1_ RTR  --- 21 cbr 532 [13a 1 0 800] ------- [0:0 7:0 31 4] [11] 1 0
r 15.575751439 _4_ RTR  --- 21 cbr 532 [13a 4 1 800] ------- [0:0 7:0 31 4] [11] 2 0
SFf 15.575751439 _4_ 21 [0 -> 7] 1 to 7
f 15.575751439 _4_ RTR  --- 21 cbr 532 [13a 4 1 800] ------- [0:0 7:0 30 7] [11] 2 0
r 15.581905439 _7_ RTR  --- 21 cbr 532 [13a 7 4 800] ------- [0:0 7:0 30 7] [11] 3 0
r 15.581905439 _7_ AGT  --- 21 cbr 512 [13a 7 4 800] ------- [0:0 7:0 30 7] [11] 3 0
s 15.625023398 _0_ AGT  --- 22 cbr 512 [0 0 0 0] ------- [0:0 7:0 32 0] [12] 0 0
r 15.625023398 _0_ RTR  --- 22 cbr 512 [0 0 0 0] ------- [0:0 7:0 32 0] [12] 0 0
SFs 15.625023398 _0_ 22 [0 -> 7] 1(0) to 1 
s 15.625023398 _0_ RTR  --- 22 cbr 532 [0 0 0 0] ------- [0:0 7:0 32 1] [12] 0 0
r 15.630853398 _1_ RTR  --- 22 cbr 532 [13a 1 0 800] ------- [0:0 7:0 32 1] [12] 1 0
SFf 15.630853398 _1_ 22 [0 -> 7] 1 to 4
f 15.630853398 _1_ RTR  --- 22 cbr 532 [13a 1 0 800] ------- [0:0 7:0 31 4] [12] 1 0
r 15.636907398 _4_ RTR  --- 22 cbr 532 [13a 4 1 800] ------- [0:0 7:0 31 4] [12] 2 0
SFf 15.636907398 _4_ 22 [0 -> 7] 1 to 7
f 15.636907398 _4_ RTR  --- 22 cbr 532 [13a 4 1 800] ------- [0:0 7:0 30 7] [12] 2 0
r 15.643121398 _7_ RTR  --- 22 cbr 532 [13a 7 4 800] ------- [0:0 7:0 30 7] [12] 3 0
r 15.643121398 _7_ AGT  --- 22 cbr 512 [13a 7 4 800] ------- [0:0 7:0 30 7] [12] 3 0
s 15.695660137 _0_ AGT  --- 23 cbr 512 [0 0 0 0] ------- [0:0 7:0 32 0] [13] 0 0
r 15.695660137 _0_ RTR  --- 23 cbr 512 [0 0 0 0] ------- [0:0 7:0 32 0] [13] 0 0
SFs 15.695660137 _0_ 23 [0 -> 7] 1(0) to 1 
s 15.695660137 _0_ RTR  --- 23 cbr 532 [0 0 0 0] ------- [0:0 7:0 32 1] [13] 0 0
r 15.701350137 _1_ RTR  --- 23 cbr 532 [13a 1 0 800] ------- [0:0 7:0 32 1] [13] 1 0
SFf 15.701350137 _1_ 23 [0 -> 7] 1 to 4
f 15.701350137 _1_ RTR  --- 23 cbr 532 [13a 1 0 800] ------- [0:0 7:0 31 4] [13] 1 0
r 15.707344137 _4_ RTR  --- 23 cbr 532 [13a 4 1 800] ------- [0:0 7:0 31 4] [13] 2 0
SFf 15.707344137 _4_ 23 [0 -> 7] 1 to 7
f 15.707344137 _4_ RTR  --- 23 cbr 532 [13a 4 1 800] ------- [0:0 7:0 30 7] [13] 2 0
r 15.713538137 _7_ RTR  --- 23 cbr 532 [13a 7 4 800] ------- [0:0 7:0 30 7] [13] 3 0
r 15.713538137 _7_ AGT  --- 23 cbr 512 [13a 7 4 800] ------- [0:0 7:0 30 7] [13] 3 0
s 15.739548903 _0_ AGT  --- 24 cbr 512 [0 0 0 0] ------- [0:0 7:0 32 0] [14] 0 0
r 15.739548903 _0_ RTR  --- 24 cbr 512 [0 0 0 0] ------- [0:0 7:0 32 0] [14] 0 0
SFs 15.739548903 _0_ 24 [0 -> 7] 1(0) to 1 
s 15.739548903 _0_ RTR  --- 24 cbr 532 [0 0 0 0] ------- [0:0 7:0 32 1] [14] 0 0
r 15.745318903 _1_ RTR  --- 24 cbr 532 [13a 1 0 800] ------- [0:0 7:0 32 1] [14] 1 0
SFf 15.745318903 _1_ 24 [0 -> 7] 1 to 4
f 15.745318903 _1_ RTR  --- 24 cbr 532 [13a 1 0 800] ------- [0:0 7:0 31 4] [14] 1 0
r 15.751352903 _4_ RTR  --- 24 cbr 532 [13a 4 1 800] ------- [0:0 7:0 31 4] [14] 2 0
SFf 15.751352903 _4_ 24 [0 -> 7] 1 to 7
f 15.751352903 _4_ RTR  --- 24 cbr 532 [13a 4 1 800] ------- [0:0 7:0 30 7] [14] 2 0
r 15.757066903 _7_ RTR  --- 24 cbr 532 [13a 7 4 800] ------- [0:0 7:0 30 7] [14] 3 0
r 15.757066903 _7_ AGT  --- 24 cbr 512 [13a 7 4 800] ------- [0:0 7:0 30 7] [14] 3 0
s 15.776740111 _0_ AGT  --- 25 cbr 512 [0 0 0 0] ------- [0:0 7:0 32 0] [15] 0 0
r 15.776740111 _0_ RTR  --- 25 cbr 512 [0 0 0 0] ------- [0:0 7:0 32 0] [15] 0 0
SFs 15.776740111 _0_ 25 [0 -> 7] 1(0) to 1 
s 15.776740111 _0_ RTR  --- 25 cbr 532 [0 0 0 0] ------- [0:0 7:0 32 1] [15] 0 0
r 15.782670111 _1_ RTR  --- 25 cbr 532 [13a 1 0 800] ------- [0:0 7:0 32 1] [15] 1 0
SFf 15.782670111 _1_ 25 [0 -> 7] 1 to 4
f 15.782670111 _1_ RTR  --- 25 cbr 532 [13a 1 0 800] ------- [0:0 7:0 31 4] [15] 1 0
r 15.788844111 _4_ RTR  --- 25 cbr 532 [13a 4 1 800] ------- [0:0 7:0 31 4] [15] 2 0
SFf 15.788844111 _4_ 25 [0 -> 7] 1 to 7
f 15.788844111 _4_ RTR  --- 25 cbr 532 [13a 4 1 800] ------- [0:0 7:0 30 7] [15] 2 0
r 15.795138111 _7_ RTR  --- 25 cbr 532 [13a 7 4 800] ------- [0:0 7:0 30 7] [15] 3 0
r 15.795138111 _7_ AGT  --- 25 cbr 512 [13a 7 4 800] ------- [0:0 7:0 30 7] [15] 3 0
s 15.840395921 _0_ AGT  --- 26 cbr 512 [0 0 0 0] ------- [0:0 7:0 32 0] [16] 0 0
r 15.840395921 _0_ RTR  --- 26 cbr 512 [0 0 0 0] ------- [0:0 7:0 32 0] [16] 0 0
SFs 15.840395921 _0_ 26 [0 -> 7] 1(0) to 1 
s 15.840395921 _0_ RTR  --- 26 cbr 532 [0 0 0 0] ------- [0:0 7:0 32 1] [16] 0 0
r 15.846405921 _1_ RTR  --- 26 cbr 532 [13a 1 0 800] ------- [0:0 7:0 32 1] [16] 1 0
SFf 15.846405921 _1_ 26 [0 -> 7] 1 to 4
f 15.846405921 _1_ RTR  --- 26 cbr 532 [13a 1 0 800] ------- [0:0 7:0 31 4] [16] 1 0
r 15.852719921 _4_ RTR  --- 26 cbr 532 [13a 4 1 800] ------- [0:0 7:0 31 4] [16] 2 0
SFf 15.852719921 _4_ 26 [0 -> 7] 1 to 7
f 15.852719921 _4_ RTR  --- 26 cbr 532 [13a 4 1 800] ------- [0:0 7:0 30 7] [16] 2 0
r 15.858733921 _7_ RTR  --- 26 cbr 532 [13a 7 4 800] ------- [0:0 7:0 30 7] [16] 3 0
r 15.858733921 _7_ AGT  --- 26 cbr 512 [13a 7 4 800] ------- [0:0 7:0 30 7] [16] 3 0
s 15.874488117 _0_ AGT  --- 27 cbr 512 [0 0 0 0] ------- [0:0 7:0 32 0] [17] 0 0
r 15.874488117 _0_ RTR  --- 27 cbr 512 [0 0 0 0] ------- [0:0 7:0 32 0] [17] 0 0
SFs 15.874488117 _0_ 27 [0 -> 7] 1(0) to 1 
s 15.874488117 _0_ RTR  --- 27 cbr 532 [0 0 0 0] ------- [0:0 7:0 32 1] [17] 0 0
r 15.880098117 _1_ RTR  --- 27 cbr 532 [13a 1 0 800] ------- [0:0 7:0 32 1] [17] 1 0
SFf 15.880098117 _1_ 27 [0 -> 7] 1 to 4
f 15.880098117 _1_ RTR  --- 27 cbr 532 [13a 1 0 800] ------- [0:0 7:0 31 4] [17] 1 0
r 15.886392117 _4_ RTR  --- 27 cbr 532 [13a 4 1 800] ------- [0:0 7:0 31 4] [17] 2 0
SFf 15.886392117 _4_ 27 [0 -> 7] 1 to 7
f 15.886392117 _4_ RTR  --- 27 cbr 532 [13a 4 1 800] ------- [0:0 7:0 30 7] [17] 2 0
r 15.892486117 _7_ RTR  --- 27 cbr 532 [13a 7 4 800] ------- [0:0 7:0 30 7] [17] 3 0
r 15.892486117 _7_ AGT  --- 27 cbr 512 [13a 7 4 800] ------- [0:0 7:0 30 7] [17] 3 0
s 15.948090760 _0_ AGT  --- 28 cbr 512 [0 0 0 0] ------- [0:0 7:0 32 0] [18] 0 0
r 15.948090760 _0_ RTR  --- 28 cbr 512 [0 0 0 0] ------- [0:0 7:0 32 0] [18] 0 0
SFs 15.948090760 _0_ 28 [0 -> 7] 1(0) to 1 
s 15.948090760 _0_ RTR  --- 28 cbr 532 [0 0 0 0] ------- [0:0 7:0 32 1] [18] 0 0
r 15.954040760 _1_ RTR  --- 28 cbr 532 [13a 1 0 800] ------- [0:0 7:0 32 1] [18] 1 0
SFf 15.954040760 _1_ 28 [0 -> 7] 1 to 4
f 15.954040760 _1_ RTR  --- 28 cbr 532 [13a 1 0 800] ------- [0:0 7:0 31 4] [18] 1 0
r 15.959934760 _4_ RTR  --- 28 cbr 532 [13a 4 1 800] ------- [0:0 7:0 31 4] [18] 2 0
SFf 15.959934760 _4_ 28 [0 -> 7] 1 to 7
f 15.959934760 _4_ RTR  --- 28 cbr 532 [13a 4 1 800] ------- [0:0 7:0 30 7] [18] 2 0
r 15.966208760 _7_ RTR  --- 28 cbr 532 [13a 7 4 800] ------- [0:0 7:0 30 7] [18] 3 0
r 15.966208760 _7_ AGT  --- 28 cbr 512 [13a 7 4 800] ------- [0:0 7:0 30 7] [18] 3 0
s 16.020875752 _0_ AGT  --- 29 cbr 512 [0 0 0 0] ------- [0:0 7:0 32 0] [19] 0 0
r 16.020875752 _0_ RTR  --- 29 cbr 512 [0 0 0 0] ------- [0:0 7:0 32 0] [19] 0 0
SFs 16.020875752 _0_ 29 [0 -> 7] 1(0) to 1 
s 16.020875752 _0_ RTR  --- 29 cbr 532 [0 0 0 0] ------- [0:0 7:0 32 1] [19] 0 0
r 16.026565752 _1_ RTR  --- 29 cbr 532 [13a 1 0 800] ------- [0:0 7:0 32 1] [19] 1 0
SFf 16.026565752 _1_ 29 [0 -> 7] 1 to 4
f 16.026565752 _1_ RTR  --- 29 cbr 532 [13a 1 0 800] ------- [0:0 7:0 31 4] [19] 1 0
r 16.032679752 _4_ RTR  --- 29 cbr 532 [13a 4 1 800] ------- [0:0 7:0 31 4] [19] 2 0
SFf 16.032679752 _4_ 29 [0 -> 7] 1 to 7
f 16.032679752 _4_ RTR  --- 29 cbr 532 [13a 4 1 800] ------- [0:0 7:0 30 7] [19] 2 0
r 16.038653752 _7_ RTR  --- 29 cbr 532 [13a 7 4 800] ------- [0:0 7:0 30 7] [19] 3 0
r 16.038653752 _7_ AGT  --- 29 cbr 512 [13a 7 4 800] ------- [0:0 7:0 30 7] [19] 3 0
s 16.072590118 _0_ AGT  --- 30 cbr 512 [0 0 0 0] ------- [0:0 7:0 32 0] [20] 0 0
r 16.072590118 _0_ RTR  --- 30 cbr 512 [0 0 0 0] ------- [0:0 7:0 32 0] [20] 0 0
SFs 16.072590118 _0_ 30 [0 -> 7] 1(0) to 1 
s 16.072590118 _0_ RTR  --- 30 cbr 532 [0 0 0 0] ------- [0:0 7:0 32 1] [20] 0 0
r 16.078280118 _1_ RTR  --- 30 cbr 532 [13a 1 0 800] ------- [0:0 7:0 32 1] [20] 1 0
SFf 16.078280118 _1_ 30 [0 -> 7] 1 to 4
f 16.078280118 _1_ RTR  --- 30 cbr 532 [13a 1 0 800] ------- [0:0 7:0 31 4] [20] 1 0
r 16.084414118 _4_ RTR  --- 30 cbr 532 [13a 4 1 800] ------- [0:0 7:0 31 4] [20] 2 0
SFf 16.084414118 _4_ 30 [0 -> 7] 1 to 7
f 16.084414118 _4_ RTR  --- 30 cbr 532 [13a 4 1 800] ------- [0:0 7:0 30 7] [20] 2 0
r 16.090548118 _7_ RTR  --- 30 cbr 532 [13a 7 4 800] ------- [0:0 7:0 30 7] [20] 3 0
r 16.090548118 _7_ AGT  --- 30 cbr 512 [13a 7 4 800] ------- [0:0 7:0 30 7] [20] 3 0
s 16.105619210 _0_ AGT  --- 31 cbr 512 [0 0 0 0] ------- [0:0 7:0 32 0] [21] 0 0
r 16.105619210 _0_ RTR  --- 31 cbr 512 [0 0 0 0] ------- [0:0 7:0 32 0] [21] 0 0
SFs 16.105619210 _0_ 31 [0 -> 7] 1(0) to 1 
s 16.105619210 _0_ RTR  --- 31 cbr 532 [0 0 0 0] ------- [0:0 7:0 32 1] [21] 0 0
r 16.111269210 _1_ RTR  --- 31 cbr 532 [13a 1 0 800] ------- [0:0 7:0 32 1] [21] 1 0
SFf 16.111269210 _1_ 31 [0 -> 7] 1 to 4
f 16.111269210 _1_ RTR  --- 31 cbr 532 [13a 1 0 800] ------- [0:0 7:0 31 4] [21] 1 0
r 16.117443210 _4_ RTR  --- 31 cbr 532 [13a 4 1 800] ------- [0:0 7:0 31 4] [21] 2 0
SFf 16.117443210 _4_ 31 [0 -> 7] 1 to 7
f 16.117443210 _4_ RTR  --- 31 cbr 532 [13a 4 1 800] ------- [0:0 7:0 30 7] [21] 2 0
r 16.123397210 _7_ RTR  --- 31 cbr 532 [13a 7 4 800] ------- [0:0 7:0 30 7] [21] 3 0
r 16.123397210 _7_ AGT  --- 31 cbr 512 [13a 7 4 800] ------- [0:0 7:0 30 7] [21] 3 0
s 16.164520570 _0_ AGT  --- 32 cbr 512 [0 0 0 0] ------- [0:0 7:0 32 0] [22] 0 0
r 16.164520570 _0_ RTR  --- 32 cbr 512 [0 0 0 0] ------- [0:0 7:0 32 0] [22] 0 0
SFs 16.164520570 _0_ 32 [0 -> 7] 1(0) to 1 
s 16.164520570 _0_ RTR  --- 32 cbr 532 [0 0 0 0] ------- [0:0 7:0 32 1] [22] 0 0
r 16.170090570 _1_ RTR  --- 32 cbr 532 [13a 1 0 800] ------- [0:0 7:0 32 1] [22] 1 0
SFf 16.170090570 _1_ 32 [0 -> 7] 1 to 4
f 16.170090570 _1_ RTR  --- 32 cbr 532 [13a 1 0 800] ------- [0:0 7:0 31 4] [22] 1 0
r 16.176404570 _4_ RTR  --- 32 cbr 532 [13a 4 1 800] ------- [0:0 7:0 31 4] [22] 2 0
SFf 16.176404570 _4_ 32 [0 -> 7] 1 to 7
f 16.176404570 _4_ RTR  --- 32 cbr 532 [13a 4 1 800] ------- [0:0 7:0 30 7] [22] 2 0
r 16.182198570 _7_ RTR  --- 32 cbr 532 [13a 7 4 800] ------- [0:0 7:0 30 7] [22] 3 0
r 16.182198570 _7_ AGT  --- 32 cbr 512 [13a 7 4 800] ------- [0:0 7:0 30 7] [22] 3 0
s 16.217186158 _0_ AGT  --- 33 cbr 512 [0 0 0 0] ------- [0:0 7:0 32 0] [23] 0 0
r 16.217186158 _0_ RTR  --- 33 cbr 512 [0 0 0 0] ------- [0:0 7:0 32 0] [23] 0 0
SFs 16.217186158 _0_ 33 [0 -> 7] 1(0) to 1 
s 16.217186158 _0_ RTR  --- 33 cbr 532 [0 0 0 0] ------- [0:0 7:0 32 1] [23] 0 0
r 16.223216158 _1_ RTR  --- 33 cbr 532 [13a 1 0 800] ------- [0:0 7:0 32 1] [23] 1 0
SFf 16.223216158 _1_ 33 [0 -> 7] 1 to 4
f 16.223216158 _1_ RTR  --- 33 cbr 532 [13a 1 0 800] ------- [0:0 7:0 31 4] [23] 1 0
r 16.229170158 _4_ RTR  --- 33 cbr 532 [13a 4 1 800] ------- [0:0 7:0 31 4] [23] 2 0
SFf 16.229170158 _4_ 33 [0 -> 7] 1 to 7
f 16.229170158 _4_ RTR  --- 33 cbr 532 [13a 4 1 800] ------- [0:0 7:0 30 7] [23] 2 0
r 16.235424158 _7_ RTR  --- 33 cbr 532 [13a 7 4 800] ------- [0:0 7:0 30 7] [23] 3 0
r 16.235424158 _7_ AGT  --- 33 cbr 512 [13a 7 4 800] ------- [0:0 7:0 30 7] [23] 3 0
s 16.290143815 _0_ AGT  --- 34 cbr 512 [0 0 0 0] ------- [0:0 7:0 32 0] [24] 0 0
r 16.290143815 _0_ RTR  --- 34 cbr 512 [0 0 0 0] ------- [0:0 7:0 32 0] [24] 0 0
SFs 16.290143815 _0_ 34 [0 -> 7] 1(0) to 1 
s 16.290143815 _0_ RTR  --- 34 cbr 532 [0 0 0 0] ------- [0:0 7:0 32 1] [24] 0 0
r 16.295773815 _1_ RTR  --- 34 cbr 532 [13a 1 0 800] ------- [0:0 7:0 32 1] [24] 1 0
SFf 16.295773815 _1_ 34 [0 -> 7] 1 to 4
f 16.295773815 _1_ RTR  --- 34 cbr 532 [13a 1 0 800] ------- [0:0 7:0 31 4] [24] 1 0
r 16.302067815 _4_ RTR  --- 34 cbr 532 [13a 4 1 800] ------- [0:0 7:0 31 4] [24] 2 0
SFf 16.302067815 _4_ 34 [0 -> 7] 1 to 7
f 16.302067815 _4_ RTR  --- 34 cbr 532 [13a 4 1 800] ------- [0:0 7:0 30 7] [24] 2 0
r 16.307941815 _7_ RTR  --- 34 cbr 532 [13a 7 4 800] ------- [0:0 7:0 30 7] [24] 3 0
r 16.307941815 _7_ AGT  --- 34 cbr 512 [13a 7 4 800] ------- [0:0 7:0 30 7] [24] 3 0
s 16.323092951 _0_ AGT  --- 35 cbr 512 [0 0 0 0] ------- [0:0 7:0 32 0] [25] 0 0
r 16.323092951 _0_ RTR  --- 35 cbr 512 [0 0 0 0] ------- [0:0 7:0 32 0] [25] 0 0
SFs 16.323092951 _0_ 35 [0 -> 7] 1(0) to 1 
s 16.323092951 _0_ RTR  --- 35 cbr 532 [0 0 0 0] ------- [0:0 7:0 32 1] [25] 0 0
r 16.328722951 _1_ RTR  --- 35 cbr 532 [13a 1 0 800] ------- [0:0 7:0 32 1] [25] 1 0
SFf 16.328722951 _1_ 35 [0 -> 7] 1 to 4
f 16.328722951 _1_ RTR  --- 35 cbr 532 [13a 1 0 800] ------- [0:0 7:0 31 4] [25] 1 0
r 16.335016951 _4_ RTR  --- 35 cbr 532 [13a 4 1 800] ------- [0:0 7:0 31 4] [25] 2 0
SFf 16.335016951 _4_ 35 [0 -> 7] 1 to 7
f 16.335016951 _4_ RTR  --- 35 cbr 532 [13a 4 1 800] ------- [0:0 7:0 30 7] [25] 2 0
r 16.341050951 _7_ RTR  --- 35 cbr 532 [13a 7 4 800] ------- [0:0 7:0 30 7] [25] 3 0
r 16.341050951 _7_ AGT  --- 35 cbr 512 [13a 7 4 800] ------- [0:0 7:0 30 7] [25] 3 0
s 16.370328371 _0_ AGT  --- 36 cbr 512 [0 0 0 0] ------- [0:0 7:0 32 0] [26] 0 0
r 16.370328371 _0_ RTR  --- 36 cbr 512 [0 0 0 0] ------- [0:0 7:0 32 0] [26] 0 0
SFs 16.370328371 _0_ 36 [0 -> 7] 1(0) to 1 
s 16.370328371 _0_ RTR  --- 36 cbr 532 [0 0 0 0] ------- [0:0 7:0 32 1] [26] 0 0
r 16.375838371 _1_ RTR  --- 36 cbr 532 [13a 1 0 800] ------- [0:0 7:0 32 1] [26] 1 0
SFf 16.375838371 _1_ 36 [0 -> 7] 1 to 4
f 16.375838371 _1_ RTR  --- 36 cbr 532 [13a 1 0 800] ------- [0:0 7:0 31 4] [26] 1 0
r 16.381832371 _4_ RTR  --- 36 cbr 532 [13a 4 1 800] ------- [0:0 7:0 31 4] [26] 2 0
SFf 16.381832371 _4_ 36 [0 -> 7] 1 to 7
f 16.381832371 _4_ RTR  --- 36 cbr 532 [13a 4 1 800] ------- [0:0 7:0 30 7] [26] 2 0
r 16.387986371 _7_ RTR  --- 36 cbr 532 [13a 7 4 800] ------- [0:0 7:0 30 7] [26] 3 0
r 16.387986371 _7_ AGT  --- 36 cbr 512 [13a 7 4 800] ------- [0:0 7:0 30 7] [26] 3 0
s 16.432680076 _0_ AGT  --- 37 cbr 512 [0 0 0 0] ------- [0:0 7:0 32 0] [27] 0 0
r 16.432680076 _0_ RTR  --- 37 cbr 512 [0 0 0 0] ------- [0:0 7:0 32 0] [27] 0 0