n -t * -s 0  -x 100 -y 100 -Z 0 -z 30  -v circle -c black
n -t * -s 1  -x 300 -y 100 -Z 0 -z 30  -v circle -c black
n -t * -s 2  -x 500 -y 100 -Z 0 -z 30  -v circle -c black
n -t * -s 3  -x 100 -y 300 -Z 0 -z 30  -v circle -c black
n -t * -s 4  -x 300 -y 300 -Z 0 -z 30  -v circle -c black
n -t * -s 5  -x 500 -y 300 -Z 0 -z 30  -v circle -c black
n -t * -s 6  -x 100 -y 500 -Z 0 -z 30  -v circle -c black
n -t * -s 7  -x 300 -y 500 -Z 0 -z 30  -v circle -c black
n -t * -s 8  -x 500 -y 500 -Z 0 -z 30  -v circle -c black
V -t * -v 1.0a5 -a 0
W -t * -x 500 -y 500
A -t * -n 1 -p 0 -o 0xffffffff -c 31 -a 1
A -t * -h 1 -m 2147483647 -s 0
+ -t 15.000000000 -s 0 -d -1 -p cbr -e 512 -c 2 -a 0 -i 0 -k AGT 
- -t 15.000000000 -s 0 -d -1 -p cbr -e 512 -c 2 -a 0 -i 0 -k AGT
h -t 15.000000000 -s 0 -d -1 -p cbr -e 512 -c 2 -a 0 -i 0 -k AGT
+ -t 15.009523409 -s 0 -d -1 -p DSR -e 32 -c 2 -a 0 -i 1 -k RTR 
- -t 15.009523409 -s 0 -d -1 -p DSR -e 32 -c 2 -a 0 -i 1 -k RTR
h -t 15.009523409 -s 0 -d -1 -p DSR -e 32 -c 2 -a 0 -i 1 -k RTR
+ -t 15.025084387 -s 0 -d -1 -p cbr -e 512 -c 2 -a 0 -i 3 -k AGT 
- -t 15.025084387 -s 0 -d -1 -p cbr -e 512 -c 2 -a 0 -i 3 -k AGT
h -t 15.025084387 -s 0 -d -1 -p cbr -e 512 -c 2 -a 0 -i 3 -k AGT
+ -t 15.071956459 -s 0 -d -1 -p DSR -e 32 -c 2 -a 0 -i 5 -k RTR 
- -t 15.071956459 -s 0 -d -1 -p DSR -e 32 -c 2 -a 0 -i 5 -k RTR
h -t 15.071956459 -s 0 -d -1 -p DSR -e 32 -c 2 -a 0 -i 5 -k RTR
+ -t 15.075654579 -s 0 -d -1 -p cbr -e 512 -c 2 -a 0 -i 7 -k AGT 
- -t 15.075654579 -s 0 -d -1 -p cbr -e 512 -c 2 -a 0 -i 7 -k AGT
h -t 15.075654579 -s 0 -d -1 -p cbr -e 512 -c 2 -a 0 -i 7 -k AGT
+ -t 15.081160551 -s 1 -d -1 -p DSR -e 48 -c 2 -a 0 -i 5 -k RTR 
- -t 15.081160551 -s 1 -d -1 -p DSR -e 48 -c 2 -a 0 -i 5 -k RTR
h -t 15.081160551 -s 1 -d -1 -p DSR -e 48 -c 2 -a 0 -i 5 -k RTR
+ -t 15.081724634 -s 3 -d -1 -p DSR -e 48 -c 2 -a 0 -i 5 -k RTR 
- -t 15.081724634 -s 3 -d -1 -p DSR -e 48 -c 2 -a 0 -i 5 -k RTR
h -t 15.081724634 -s 3 -d -1 -p DSR -e 48 -c 2 -a 0 -i 5 -k RTR
+ -t 15.082768279 -s 2 -d -1 -p DSR -e 68 -c 2 -a 0 -i 5 -k RTR 
- -t 15.082768279 -s 2 -d -1 -p DSR -e 68 -c 2 -a 0 -i 5 -k RTR
h -t 15.082768279 -s 2 -d -1 -p DSR -e 68 -c 2 -a 0 -i 5 -k RTR
+ -t 15.089759412 -s 4 -d -1 -p DSR -e 68 -c 2 -a 0 -i 5 -k RTR 
- -t 15.089759412 -s 4 -d -1 -p DSR -e 68 -c 2 -a 0 -i 5 -k RTR
h -t 15.089759412 -s 4 -d -1 -p DSR -e 68 -c 2 -a 0 -i 5 -k RTR
+ -t 15.089785178 -s 5 -d -1 -p DSR -e 92 -c 2 -a 0 -i 5 -k RTR 
- -t 15.089785178 -s 5 -d -1 -p DSR -e 92 -c 2 -a 0 -i 5 -k RTR
h -t 15.089785178 -s 5 -d -1 -p DSR -e 92 -c 2 -a 0 -i 5 -k RTR
+ -t 15.093935589 -s 6 -d -1 -p DSR -e 68 -c 2 -a 0 -i 5 -k RTR 
- -t 15.093935589 -s 6 -d -1 -p DSR -e 68 -c 2 -a 0 -i 5 -k RTR
h -t 15.093935589 -s 6 -d -1 -p DSR -e 68 -c 2 -a 0 -i 5 -k RTR
+ -t 15.100853592 -s 7 -d 4 -p DSR -e 60 -c 2 -a 0 -i 9 -k RTR 
- -t 15.100853592 -s 7 -d 4 -p DSR -e 60 -c 2 -a 0 -i 9 -k RTR
h -t 15.100853592 -s 7 -d 4 -p DSR -e 60 -c 2 -a 0 -i 9 -k RTR
+ -t 15.101008077 -s 8 -d -1 -p DSR -e 120 -c 2 -a 0 -i 5 -k RTR 
- -t 15.101008077 -s 8 -d -1 -p DSR -e 120 -c 2 -a 0 -i 5 -k RTR
h -t 15.101008077 -s 8 -d -1 -p DSR -e 120 -c 2 -a 0 -i 5 -k RTR
+ -t 15.102907592 -s 4 -d 1 -p DSR -e 60 -c 2 -a 0 -i 9 -k RTR 
- -t 15.102907592 -s 4 -d 1 -p DSR -e 60 -c 2 -a 0 -i 9 -k RTR
h -t 15.102907592 -s 4 -d 1 -p DSR -e 60 -c 2 -a 0 -i 9 -k RTR
+ -t 15.103345538 -s 7 -d 6 -p DSR -e 60 -c 2 -a 0 -i 10 -k RTR 
- -t 15.103345538 -s 7 -d 6 -p DSR -e 60 -c 2 -a 0 -i 10 -k RTR
h -t 15.103345538 -s 7 -d 6 -p DSR -e 60 -c 2 -a 0 -i 10 -k RTR
+ -t 15.104965592 -s 1 -d 0 -p DSR -e 60 -c 2 -a 0 -i 9 -k RTR 
- -t 15.104965592 -s 1 -d 0 -p DSR -e 60 -c 2 -a 0 -i 9 -k RTR
h -t 15.104965592 -s 1 -d 0 -p DSR -e 60 -c 2 -a 0 -i 9 -k RTR
+ -t 15.106453122 -s 0 -d -1 -p cbr -e 512 -c 2 -a 0 -i 11 -k AGT 
- -t 15.106453122 -s 0 -d -1 -p cbr -e 512 -c 2 -a 0 -i 11 -k AGT
h -t 15.106453122 -s 0 -d -1 -p cbr -e 512 -c 2 -a 0 -i 11 -k AGT
+ -t 15.107143592 -s 0 -d 1 -p cbr -e 556 -c 2 -a 0 -i 0 -k RTR 
- -t 15.107143592 -s 0 -d 1 -p cbr -e 556 -c 2 -a 0 -i 0 -k RTR
h -t 15.107143592 -s 0 -d 1 -p cbr -e 556 -c 2 -a 0 -i 0 -k RTR
+ -t 15.111409082 -s 6 -d 3 -p DSR -e 60 -c 2 -a 0 -i 10 -k RTR 
- -t 15.111409082 -s 6 -d 3 -p DSR -e 60 -c 2 -a 0 -i 10 -k RTR
h -t 15.111409082 -s 6 -d 3 -p DSR -e 60 -c 2 -a 0 -i 10 -k RTR
+ -t 15.112049730 -s 7 -d 8 -p DSR -e 76 -c 2 -a 0 -i 13 -k RTR 
- -t 15.112049730 -s 7 -d 8 -p DSR -e 76 -c 2 -a 0 -i 13 -k RTR
h -t 15.112049730 -s 7 -d 8 -p DSR -e 76 -c 2 -a 0 -i 13 -k RTR
+ -t 15.113487082 -s 3 -d 0 -p DSR -e 60 -c 2 -a 0 -i 10 -k RTR 
- -t 15.113487082 -s 3 -d 0 -p DSR -e 60 -c 2 -a 0 -i 10 -k RTR
h -t 15.113487082 -s 3 -d 0 -p DSR -e 60 -c 2 -a 0 -i 10 -k RTR
+ -t 15.115978025 -s 8 -d 5 -p DSR -e 76 -c 2 -a 0 -i 13 -k RTR 
- -t 15.115978025 -s 8 -d 5 -p DSR -e 76 -c 2 -a 0 -i 13 -k RTR
h -t 15.115978025 -s 8 -d 5 -p DSR -e 76 -c 2 -a 0 -i 13 -k RTR
+ -t 15.118044025 -s 5 -d 2 -p DSR -e 76 -c 2 -a 0 -i 13 -k RTR 
- -t 15.118044025 -s 5 -d 2 -p DSR -e 76 -c 2 -a 0 -i 13 -k RTR
h -t 15.118044025 -s 5 -d 2 -p DSR -e 76 -c 2 -a 0 -i 13 -k RTR
+ -t 15.120550025 -s 2 -d 1 -p DSR -e 76 -c 2 -a 0 -i 13 -k RTR 
- -t 15.120550025 -s 2 -d 1 -p DSR -e 76 -c 2 -a 0 -i 13 -k RTR
h -t 15.120550025 -s 2 -d 1 -p DSR -e 76 -c 2 -a 0 -i 13 -k RTR
+ -t 15.122796025 -s 1 -d 0 -p DSR -e 76 -c 2 -a 0 -i 13 -k RTR 
- -t 15.122796025 -s 1 -d 0 -p DSR -e 76 -c 2 -a 0 -i 13 -k RTR
h -t 15.122796025 -s 1 -d 0 -p DSR -e 76 -c 2 -a 0 -i 13 -k RTR
+ -t 15.133416301 -s 1 -d 4 -p cbr -e 556 -c 2 -a 0 -i 0 -k RTR 
- -t 15.133416301 -s 1 -d 4 -p cbr -e 556 -c 2 -a 0 -i 0 -k RTR
h -t 15.133416301 -s 1 -d 4 -p cbr -e 556 -c 2 -a 0 -i 0 -k RTR
+ -t 15.137143592 -s 0 -d 1 -p cbr -e 556 -c 2 -a 0 -i 3 -k RTR 
- -t 15.137143592 -s 0 -d 1 -p cbr -e 556 -c 2 -a 0 -i 3 -k RTR
h -t 15.137143592 -s 0 -d 1 -p cbr -e 556 -c 2 -a 0 -i 3 -k RTR
+ -t 15.139562301 -s 4 -d 7 -p cbr -e 556 -c 2 -a 0 -i 0 -k RTR 
- -t 15.139562301 -s 4 -d 7 -p cbr -e 556 -c 2 -a 0 -i 0 -k RTR
h -t 15.139562301 -s 4 -d 7 -p cbr -e 556 -c 2 -a 0 -i 0 -k RTR
r -t 15.145648301 -s 7 -d 7 -p cbr -e 512 -c 2 -a 0 -i 0 -k AGT
+ -t 15.151939792 -s 1 -d 4 -p cbr -e 556 -c 2 -a 0 -i 3 -k RTR 
- -t 15.151939792 -s 1 -d 4 -p cbr -e 556 -c 2 -a 0 -i 3 -k RTR
h -t 15.151939792 -s 1 -d 4 -p cbr -e 556 -c 2 -a 0 -i 3 -k RTR
+ -t 15.158165792 -s 4 -d 7 -p cbr -e 556 -c 2 -a 0 -i 3 -k RTR 
- -t 15.158165792 -s 4 -d 7 -p cbr -e 556 -c 2 -a 0 -i 3 -k RTR
h -t 15.158165792 -s 4 -d 7 -p cbr -e 556 -c 2 -a 0 -i 3 -k RTR
r -t 15.164251792 -s 7 -d 7 -p cbr -e 512 -c 2 -a 0 -i 3 -k AGT
+ -t 15.167143592 -s 0 -d 1 -p cbr -e 556 -c 2 -a 0 -i 7 -k RTR 
- -t 15.167143592 -s 0 -d 1 -p cbr -e 556 -c 2 -a 0 -i 7 -k RTR
h -t 15.167143592 -s 0 -d 1 -p cbr -e 556 -c 2 -a 0 -i 7 -k RTR
+ -t 15.173025592 -s 1 -d 4 -p cbr -e 556 -c 2 -a 0 -i 7 -k RTR 
- -t 15.173025592 -s 1 -d 4 -p cbr -e 556 -c 2 -a 0 -i 7 -k RTR
h -t 15.173025592 -s 1 -d 4 -p cbr -e 556 -c 2 -a 0 -i 7 -k RTR
+ -t 15.179071592 -s 4 -d 7 -p cbr -e 556 -c 2 -a 0 -i 7 -k RTR 
- -t 15.179071592 -s 4 -d 7 -p cbr -e 556 -c 2 -a 0 -i 7 -k RTR
h -t 15.179071592 -s 4 -d 7 -p cbr -e 556 -c 2 -a 0 -i 7 -k RTR
+ -t 15.180268687 -s 0 -d -1 -p cbr -e 512 -c 2 -a 0 -i 14 -k AGT 
- -t 15.180268687 -s 0 -d -1 -p cbr -e 512 -c 2 -a 0 -i 14 -k AGT
h -t 15.180268687 -s 0 -d -1 -p cbr -e 512 -c 2 -a 0 -i 14 -k AGT
+ -t 15.180268687 -s 0 -d 1 -p cbr -e 532 -c 2 -a 0 -i 14 -k RTR 
- -t 15.180268687 -s 0 -d 1 -p cbr -e 532 -c 2 -a 0 -i 14 -k RTR
h -t 15.180268687 -s 0 -d 1 -p cbr -e 532 -c 2 -a 0 -i 14 -k RTR
r -t 15.185037592 -s 7 -d 7 -p cbr -e 512 -c 2 -a 0 -i 7 -k AGT
+ -t 15.191457082 -s 1 -d 4 -p cbr -e 532 -c 2 -a 0 -i 14 -k RTR 
- -t 15.191457082 -s 1 -d 4 -p cbr -e 532 -c 2 -a 0 -i 14 -k RTR
h -t 15.191457082 -s 1 -d 4 -p cbr -e 532 -c 2 -a 0 -i 14 -k RTR
+ -t 15.197143592 -s 0 -d 1 -p cbr -e 532 -c 2 -a 0 -i 11 -k RTR 
- -t 15.197143592 -s 0 -d 1 -p cbr -e 532 -c 2 -a 0 -i 11 -k RTR
h -t 15.197143592 -s 0 -d 1 -p cbr -e 532 -c 2 -a 0 -i 11 -k RTR
+ -t 15.197351082 -s 4 -d 7 -p cbr -e 532 -c 2 -a 0 -i 14 -k RTR 
- -t 15.197351082 -s 4 -d 7 -p cbr -e 532 -c 2 -a 0 -i 14 -k RTR
h -t 15.197351082 -s 4 -d 7 -p cbr -e 532 -c 2 -a 0 -i 14 -k RTR
r -t 15.203585082 -s 7 -d 7 -p cbr -e 512 -c 2 -a 0 -i 14 -k AGT
+ -t 15.209764573 -s 1 -d 4 -p cbr -e 532 -c 2 -a 0 -i 11 -k RTR 
- -t 15.209764573 -s 1 -d 4 -p cbr -e 532 -c 2 -a 0 -i 11 -k RTR
h -t 15.209764573 -s 1 -d 4 -p cbr -e 532 -c 2 -a 0 -i 11 -k RTR
+ -t 15.215998573 -s 4 -d 7 -p cbr -e 532 -c 2 -a 0 -i 11 -k RTR 
- -t 15.215998573 -s 4 -d 7 -p cbr -e 532 -c 2 -a 0 -i 11 -k RTR
h -t 15.215998573 -s 4 -d 7 -p cbr -e 532 -c 2 -a 0 -i 11 -k RTR
r -t 15.221872573 -s 7 -d 7 -p cbr -e 512 -c 2 -a 0 -i 11 -k AGT
+ -t 15.235591356 -s 0 -d -1 -p cbr -e 512 -c 2 -a 0 -i 15 -k AGT 
- -t 15.235591356 -s 0 -d -1 -p cbr -e 512 -c 2 -a 0 -i 15 -k AGT
h -t 15.235591356 -s 0 -d -1 -p cbr -e 512 -c 2 -a 0 -i 15 -k AGT
+ -t 15.235591356 -s 0 -d 1 -p cbr -e 532 -c 2 -a 0 -i 15 -k RTR 
- -t 15.235591356 -s 0 -d 1 -p cbr -e 532 -c 2 -a 0 -i 15 -k RTR
h -t 15.235591356 -s 0 -d 1 -p cbr -e 532 -c 2 -a 0 -i 15 -k RTR
+ -t 15.241461356 -s 1 -d 4 -p cbr -e 532 -c 2 -a 0 -i 15 -k RTR 
- -t 15.241461356 -s 1 -d 4 -p cbr -e 532 -c 2 -a 0 -i 15 -k RTR
h -t 15.241461356 -s 1 -d 4 -p cbr -e 532 -c 2 -a 0 -i 15 -k RTR
+ -t 15.247595356 -s 4 -d 7 -p cbr -e 532 -c 2 -a 0 -i 15 -k RTR 
- -t 15.247595356 -s 4 -d 7 -p cbr -e 532 -c 2 -a 0 -i 15 -k RTR
h -t 15.247595356 -s 4 -d 7 -p cbr -e 532 -c 2 -a 0 -i 15 -k RTR
r -t 15.253729356 -s 7 -d 7 -p cbr -e 512 -c 2 -a 0 -i 15 -k AGT
+ -t 15.291025569 -s 0 -d -1 -p cbr -e 512 -c 2 -a 0 -i 16 -k AGT 
- -t 15.291025569 -s 0 -d -1 -p cbr -e 512 -c 2 -a 0 -i 16 -k AGT
h -t 15.291025569 -s 0 -d -1 -p cbr -e 512 -c 2 -a 0 -i 16 -k AGT
+ -t 15.291025569 -s 0 -d 1 -p cbr -e 532 -c 2 -a 0 -i 16 -k RTR 
- -t 15.291025569 -s 0 -d 1 -p cbr -e 532 -c 2 -a 0 -i 16 -k RTR
h -t 15.291025569 -s 0 -d 1 -p cbr -e 532 -c 2 -a 0 -i 16 -k RTR
+ -t 15.296735569 -s 1 -d 4 -p cbr -e 532 -c 2 -a 0 -i 16 -k RTR 
- -t 15.296735569 -s 1 -d 4 -p cbr -e 532 -c 2 -a 0 -i 16 -k RTR
h -t 15.296735569 -s 1 -d 4 -p cbr -e 532 -c 2 -a 0 -i 16 -k RTR
+ -t 15.302769569 -s 4 -d 7 -p cbr -e 532 -c 2 -a 0 -i 16 -k RTR 
- -t 15.302769569 -s 4 -d 7 -p cbr -e 532 -c 2 -a 0 -i 16 -k RTR
h -t 15.302769569 -s 4 -d 7 -p cbr -e 532 -c 2 -a 0 -i 16 -k RTR
r -t 15.308863569 -s 7 -d 7 -p cbr -e 512 -c 2 -a 0 -i 16 -k AGT
+ -t 15.340790011 -s 0 -d -1 -p cbr -e 512 -c 2 -a 0 -i 17 -k AGT 
- -t 15.340790011 -s 0 -d -1 -p cbr -e 512 -c 2 -a 0 -i 17 -k AGT
h -t 15.340790011 -s 0 -d -1 -p cbr -e 512 -c 2 -a 0 -i 17 -k AGT
+ -t 15.340790011 -s 0 -d 1 -p cbr -e 532 -c 2 -a 0 -i 17 -k RTR 
- -t 15.340790011 -s 0 -d 1 -p cbr -e 532 -c 2 -a 0 -i 17 -k RTR
h -t 15.340790011 -s 0 -d 1 -p cbr -e 532 -c 2 -a 0 -i 17 -k RTR
+ -t 15.346500011 -s 1 -d 4 -p cbr -e 532 -c 2 -a 0 -i 17 -k RTR 
- -t 15.346500011 -s 1 -d 4 -p cbr -e 532 -c 2 -a 0 -i 17 -k RTR
h -t 15.346500011 -s 1 -d 4 -p cbr -e 532 -c 2 -a 0 -i 17 -k RTR
+ -t 15.352254011 -s 4 -d 7 -p cbr -e 532 -c 2 -a 0 -i 17 -k RTR 
- -t 15.352254011 -s 4 -d 7 -p cbr -e 532 -c 2 -a 0 -i 17 -k RTR
h -t 15.352254011 -s 4 -d 7 -p cbr -e 532 -c 2 -a 0 -i 17 -k RTR
r -t 15.358288011 -s 7 -d 7 -p cbr -e 512 -c 2 -a 0 -i 17 -k AGT
+ -t 15.391236716 -s 0 -d -1 -p cbr -e 512 -c 2 -a 0 -i 18 -k AGT 
- -t 15.391236716 -s 0 -d -1 -p cbr -e 512 -c 2 -a 0 -i 18 -k AGT
h -t 15.391236716 -s 0 -d -1 -p cbr -e 512 -c 2 -a 0 -i 18 -k AGT
+ -t 15.391236716 -s 0 -d 1 -p cbr -e 532 -c 2 -a 0 -i 18 -k RTR 
- -t 15.391236716 -s 0 -d 1 -p cbr -e 532 -c 2 -a 0 -i 18 -k RTR
h -t 15.391236716 -s 0 -d 1 -p cbr -e 532 -c 2 -a 0 -i 18 -k RTR
+ -t 15.397146716 -s 1 -d 4 -p cbr -e 532 -c 2 -a 0 -i 18 -k RTR 
- -t 15.397146716 -s 1 -d 4 -p cbr -e 532 -c 2 -a 0 -i 18 -k RTR
h -t 15.397146716 -s 1 -d 4 -p cbr -e 532 -c 2 -a 0 -i 18 -k RTR
+ -t 15.403200716 -s 4 -d 7 -p cbr -e 532 -c 2 -a 0 -i 18 -k RTR 
- -t 15.403200716 -s 4 -d 7 -p cbr -e 532 -c 2 -a 0 -i 18 -k RTR
h -t 15.403200716 -s 4 -d 7 -p cbr -e 532 -c 2 -a 0 -i 18 -k RTR
r -t 15.409054716 -s 7 -d 7 -p cbr -e 512 -c 2 -a 0 -i 18 -k AGT
+ -t 15.456970015 -s 0 -d -1 -p cbr -e 512 -c 2 -a 0 -i 19 -k AGT 
- -t 15.456970015 -s 0 -d -1 -p cbr -e 512 -c 2 -a 0 -i 19 -k AGT
h -t 15.456970015 -s 0 -d -1 -p cbr -e 512 -c 2 -a 0 -i 19 -k AGT
+ -t 15.456970015 -s 0 -d 1 -p cbr -e 532 -c 2 -a 0 -i 19 -k RTR 
- -t 15.456970015 -s 0 -d 1 -p cbr -e 532 -c 2 -a 0 -i 19 -k RTR
h -t 15.456970015 -s 0 -d 1 -p cbr -e 532 -c 2 -a 0 -i 19 -k RTR
+ -t 15.462700015 -s 1 -d 4 -p cbr -e 532 -c 2 -a 0 -i 19 -k RTR 
- -t 15.462700015 -s 1 -d 4 -p cbr -e 532 -c 2 -a 0 -i 19 -k RTR
h -t 15.462700015 -s 1 -d 4 -p cbr -e 532 -c 2 -a 0 -i 19 -k RTR
+ -t 15.468514015 -s 4 -d 7 -p cbr -e 532 -c 2 -a 0 -i 19 -k RTR 
- -t 15.468514015 -s 4 -d 7 -p cbr -e 532 -c 2 -a 0 -i 19 -k RTR
h -t 15.468514015 -s 4 -d 7 -p cbr -e 532 -c 2 -a 0 -i 19 -k RTR
r -t 15.474608015 -s 7 -d 7 -p cbr -e 512 -c 2 -a 0 -i 19 -k AGT
+ -t 15.489808668 -s 0 -d -1 -p cbr -e 512 -c 2 -a 0 -i 20 -k AGT 
- -t 15.489808668 -s 0 -d -1 -p cbr -e 512 -c 2 -a 0 -i 20 -k AGT
h -t 15.489808668 -s 0 -d -1 -p cbr -e 512 -c 2 -a 0 -i 20 -k AGT
+ -t 15.489808668 -s 0 -d 1 -p cbr -e 532 -c 2 -a 0 -i 20 -k RTR 
- -t 15.489808668 -s 0 -d 1 -p cbr -e 532 -c 2 -a 0 -i 20 -k RTR
h -t 15.489808668 -s 0 -d 1 -p cbr -e 532 -c 2 -a 0 -i 20 -k RTR
+ -t 15.495438668 -s 1 -d 4 -p cbr -e 532 -c 2 -a 0 -i 20 -k RTR 
- -t 15.495438668 -s 1 -d 4 -p cbr -e 532 -c 2 -a 0 -i 20 -k RTR
h -t 15.495438668 -s 1 -d 4 -p cbr -e 532 -c 2 -a 0 -i 20 -k RTR
+ -t 15.501352668 -s 4 -d 7 -p cbr -e 532 -c 2 -a 0 -i 20 -k RTR 
- -t 15.501352668 -s 4 -d 7 -p cbr -e 532 -c 2 -a 0 -i 20 -k RTR
h -t 15.501352668 -s 4 -d 7 -p cbr -e 532 -c 2 -a 0 -i 20 -k RTR
r -t 15.507446668 -s 7 -d 7 -p cbr -e 512 -c 2 -a 0 -i 20 -k AGT
+ -t 15.564067439 -s 0 -d -1 -p cbr -e 512 -c 2 -a 0 -i 21 -k AGT 
- -t 15.564067439 -s 0 -d -1 -p cbr -e 512 -c 2 -a 0 -i 21 -k AGT
h -t 15.564067439 -s 0 -d -1 -p cbr -e 512 -c 2 -a 0 -i 21 -k AGT
+ -t 15.564067439 -s 0 -d 1 -p cbr -e 532 -c 2 -a 0 -i 21 -k RTR 
- -t 15.564067439 -s 0 -d 1 -p cbr -e 532 -c 2 -a 0 -i 21 -k RTR
h -t 15.564067439 -s 0 -d 1 -p cbr -e 532 -c 2 -a 0 -i 21 -k RTR
+ -t 15.569837439 -s 1 -d 4 -p cbr -e 532 -c 2 -a 0 -i 21 -k RTR 
- -t 15.569837439 -s 1 -d 4 -p cbr -e 532 -c 2 -a 0 -i 21 -k RTR
h -t 15.569837439 -s 1 -d 4 -p cbr -e 532 -c 2 -a 0 -i 21 -k RTR
+ -t 15.575751439 -s 4 -d 7 -p cbr -e 532 -c 2 -a 0 -i 21 -k RTR 
- -t 15.575751439 -s 4 -d 7 -p cbr -e 532 -c 2 -a 0 -i 21 -k RTR
h -t 15.575751439 -s 4 -d 7 -p cbr -e 532 -c 2 -a 0 -i 21 -k RTR
r -t 15.581905439 -s 7 -d 7 -p cbr -e 512 -c 2 -a 0 -i 21 -k AGT
+ -t 15.625023398 -s 0 -d -1 -p cbr -e 512 -c 2 -a 0 -i 22 -k AGT 
- -t 15.625023398 -s 0 -d -1 -p cbr -e 512 -c 2 -a 0 -i 22 -k AGT
h -t 15.625023398 -s 0 -d -1 -p cbr -e 512 -c 2 -a 0 -i 22 -k AGT
+ -t 15.625023398 -s 0 -d 1 -p cbr -e 532 -c 2 -a 0 -i 22 -k RTR 
- -t 15.625023398 -s 0 -d 1 -p cbr -e 532 -c 2 -a 0 -i 22 -k RTR
h -t 15.625023398 -s 0 -d 1 -p cbr -e 532 -c 2 -a 0 -i 22 -k RTR
+ -t 15.630853398 -s 1 -d 4 -p cbr -e 532 -c 2 -a 0 -i 22 -k RTR 
- -t 15.630853398 -s 1 -d 4 -p cbr -e 532 -c 2 -a 0 -i 22 -k RTR
h -t 15.630853398 -s 1 -d 4 -p cbr -e 532 -c 2 -a 0 -i 22 -k RTR
+ -t 15.636907398 -s 4 -d 7 -p cbr -e 532 -c 2 -a 0 -i 22 -k RTR 
- -t 15.636907398 -s 4 -d 7 -p cbr -e 532 -c 2 -a 0 -i 22 -k RTR
h -t 15.636907398 -s 4 -d 7 -p cbr -e 532 -c 2 -a 0 -i 22 -k RTR
r -t 15.643121398 -s 7 -d 7 -p cbr -e 512 -c 2 -a 0 -i 22 -k AGT
+ -t 15.695660137 -s 0 -d -1 -p cbr -e 512 -c 2 -a 0 -i 23 -k AGT 
- -t 15.695660137 -s 0 -d -1 -p cbr -e 512 -c 2 -a 0 -i 23 -k AGT
h -t 15.695660137 -s 0 -d -1 -p cbr -e 512 -c 2 -a 0 -i 23 -k AGT
+ -t 15.695660137 -s 0 -d 1 -p cbr -e 532 -c 2 -a 0 -i 23 -k RTR 
- -t 15.695660137 -s 0 -d 1 -p cbr -e 532 -c 2 -a 0 -i 23 -k RTR
h -t 15.695660137 -s 0 -d 1 -p cbr -e 532 -c 2 -a 0 -i 23 -k RTR
+ -t 15.701350137 -s 1 -d 4 -p cbr -e 532 -c 2 -a 0 -i 23 -k RTR 
- -t 15.701350137 -s 1 -d 4 -p cbr -e 532 -c 2 -a 0 -i 23 -k RTR
h -t 15.701350137 -s 1 -d 4 -p cbr -e 532 -c 2 -a 0 -i 23 -k RTR
+ -t 15.707344137 -s 4 -d 7 -p cbr -e 532 -c 2 -a 0 -i 23 -k RTR 
- -t 15.707344137 -s 4 -d 7 -p cbr -e 532 -c 2 -a 0 -i 23 -k RTR
h -t 15.707344137 -s 4 -d 7 -p cbr -e 532 -c 2 -a 0 -i 23 -k RTR
r -t 15.713538137 -s 7 -d 7 -p cbr -e 512 -c 2 -a 0 -i 23 -k AGT
+ -t 15.739548903 -s 0 -d -1 -p cbr -e 512 -c 2 -a 0 -i 24 -k AGT 
- -t 15.739548903 -s 0 -d -1 -p cbr -e 512 -c 2 -a 0 -i 24 -k AGT
h -t 15.739548903 -s 0 -d -1 -p cbr -e 512 -c 2 -a 0 -i 24 -k AGT
+ -t 15.739548903 -s 0 -d 1 -p cbr -e 532 -c 2 -a 0 -i 24 -k RTR 
- -t 15.739548903 -s 0 -d 1 -p cbr -e 532 -c 2 -a 0 -i 24 -k RTR
h -t 15.739548903 -s 0 -d 1 -p cbr -e 532 -c 2 -a 0 -i 24 -k RTR
+ -t 15.745318903 -s 1 -d 4 -p cbr -e 532 -c 2 -a 0 -i 24 -k RTR 
- -t 15.745318903 -s 1 -d 4 -p cbr -e 532 -c 2 -a 0 -i 24 -k RTR
h -t 15.745318903 -s 1 -d 4 -p cbr -e 532 -c 2 -a 0 -i 24 -k RTR
+ -t 15.751352903 -s 4 -d 7 -p cbr -e 532 -c 2 -a 0 -i 24 -k RTR 
- -t 15.751352903 -s 4 -d 7 -p cbr -e 532 -c 2 -a 0 -i 24 -k RTR
h -t 15.751352903 -s 4 -d 7 -p cbr -e 532 -c 2 -a 0 -i 24 -k RTR
r -t 15.757066903 -s 7 -d 7 -p cbr -e 512 -c 2 -a 0 -i 24 -k AGT
+ -t 15.776740111 -s 0 -d -1 -p cbr -e 512 -c 2 -a 0 -i 25 -k AGT 
- -t 15.776740111 -s 0 -d -1 -p cbr -e 512 -c 2 -a 0 -i 25 -k AGT
h -t 15.776740111 -s 0 -d -1 -p cbr -e 512 -c 2 -a 0 -i 25 -k AGT
+ -t 15.776740111 -s 0 -d 1 -p cbr -e 532 -c 2 -a 0 -i 25 -k RTR 
- -t 15.776740111 -s 0 -d 1 -p cbr -e 532 -c 2 -a 0 -i 25 -k RTR
h -t 15.776740111 -s 0 -d 1 -p cbr -e 532 -c 2 -a 0 -i 25 -k RTR
+ -t 15.782670111 -s 1 -d 4 -p cbr -e 532 -c 2 -a 0 -i 25 -k RTR 
- -t 15.782670111 -s 1 -d 4 -p cbr -e 532 -c 2 -a 0 -i 25 -k RTR
h -t 15.782670111 -s 1 -d 4 -p cbr -e 532 -c 2 -a 0 -i 25 -k RTR
+ -t 15.788844111 -s 4 -d 7 -p cbr -e 532 -c 2 -a 0 -i 25 -k RTR 
- -t 15.788844111 -s 4 -d 7 -p cbr -e 532 -c 2 -a 0 -i 25 -k RTR
h -t 15.788844111 -s 4 -d 7 -p cbr -e 532 -c 2 -a 0 -i 25 -k RTR
r -t 15.795138111 -s 7 -d 7 -p cbr -e 512 -c 2 -a 0 -i 25 -k AGT
+ -t 15.840395921 -s 0 -d -1 -p cbr -e 512 -c 2 -a 0 -i 26 -k AGT 
- -t 15.840395921 -s 0 -d -1 -p cbr -e 512 -c 2 -a 0 -i 26 -k AGT
h -t 15.840395921 -s 0 -d -1 -p cbr -e 512 -c 2 -a 0 -i 26 -k AGT
+ -t 15.840395921 -s 0 -d 1 -p cbr -e 532 -c 2 -a 0 -i 26 -k RTR 
- -t 15.840395921 -s 0 -d 1 -p cbr -e 532 -c 2 -a 0 -i 26 -k RTR
h -t 15.840395921 -s 0 -d 1 -p cbr -e 532 -c 2 -a 0 -i 26 -k RTR
+ -t 15.846405921 -s 1 -d 4 -p cbr -e 532 -c 2 -a 0 -i 26 -k RTR 
- -t 15.846405921 -s 1 -d 4 -p cbr -e 532 -c 2 -a 0 -i 26 -k RTR
h -t 15.846405921 -s 1 -d 4 -p cbr -e 532 -c 2 -a 0 -i 26 -k RTR
+ -t 15.852719921 -s 4 -d 7 -p cbr -e 532 -c 2 -a 0 -i 26 -k RTR 
- -t 15.852719921 -s 4 -d 7 -p cbr -e 532 -c 2 -a 0 -i 26 -k RTR
h -t 15.852719921 -s 4 -d 7 -p cbr -e 532 -c 2 -a 0 -i 26 -k RTR
r -t 15.858733921 -s 7 -d 7 -p cbr -e 512 -c 2 -a 0 -i 26 -k AGT
+ -t 15.874488117 -s 0 -d -1 -p cbr -e 512 -c 2 -a 0 -i 27 -k AGT 
- -t 15.874488117 -s 0 -d -1 -p cbr -e 512 -c 2 -a 0 -i 27 -k AGT
h -t 15.874488117 -s 0 -d -1 -p cbr -e 512 -c 2 -a 0 -i 27 -k AGT
+ -t 15.874488117 -s 0 -d 1 -p cbr -e 532 -c 2 -a 0 -i 27 -k RTR 
- -t 15.874488117 -s 0 -d 1 -p cbr -e 532 -c 2 -a 0 -i 27 -k RTR
h -t 15.874488117 -s 0 -d 1 -p cbr -e 532 -c 2 -a 0 -i 27 -k RTR
+ -t 15.880098117 -s 1 -d 4 -p cbr -e 532 -c 2 -a 0 -i 27 -k RTR 
- -t 15.880098117 -s 1 -d 4 -p cbr -e 532 -c 2 -a 0 -i 27 -k RTR
h -t 15.880098117 -s 1 -d 4 -p cbr -e 532 -c 2 -a 0 -i 27 -k RTR
+ -t 15.886392117 -s 4 -d 7 -p cbr -e 532 -c 2 -a 0 -i 27 -k RTR 
- -t 15.886392117 -s 4 -d 7 -p cbr -e 532 -c 2 -a 0 -i 27 -k RTR
h -t 15.886392117 -s 4 -d 7 -p cbr -e 532 -c 2 -a 0 -i 27 -k RTR
r -t 15.892486117 -s 7 -d 7 -p cbr -e 512 -c 2 -a 0 -i 27 -k AGT
+ -t 15.948090760 -s 0 -d -1 -p cbr -e 512 -c 2 -a 0 -i 28 -k AGT 
- -t 15.948090760 -s 0 -d -1 -p cbr -e 512 -c 2 -a 0 -i 28 -k AGT
h -t 15.948090760 -s 0 -d -1 -p cbr -e 512 -c 2 -a 0 -i 28 -k AGT
+ -t 15.948090760 -s 0 -d 1 -p cbr -e 532 -c 2 -a 0 -i 28 -k RTR 
- -t 15.948090760 -s 0 -d 1 -p cbr -e 532 -c 2 -a 0 -i 28 -k RTR
h -t 15.948090760 -s 0 -d 1 -p cbr -e 532 -c 2 -a 0 -i 28 -k RTR
+ -t 15.954040760 -s 1 -d 4 -p cbr -e 532 -c 2 -a 0 -i 28 -k RTR 
- -t 15.954040760 -s 1 -d 4 -p cbr -e 532 -c 2 -a 0 -i 28 -k RTR
h -t 15.954040760 -s 1 -d 4 -p cbr -e 532 -c 2 -a 0 -i 28 -k RTR
+ -t 15.959934760 -s 4 -d 7 -p cbr -e 532 -c 2 -a 0 -i 28 -k RTR 
- -t 15.959934760 -s 4 -d 7 -p cbr -e 532 -c 2 -a 0 -i 28 -k RTR
h -t 15.959934760 -s 4 -d 7 -p cbr -e 532 -c 2 -a 0 -i 28 -k RTR
r -t 15.966208760 -s 7 -d 7 -p cbr -e 512 -c 2 -a 0 -i 28 -k AGT
+ -t 16.020875752 -s 0 -d -1 -p cbr -e 512 -c 2 -a 0 -i 29 -k AGT 
- -t 16.020875752 -s 0 -d -1 -p cbr -e 512 -c 2 -a 0 -i 29 -k AGT
h -t 16.020875752 -s 0 -d -1 -p cbr -e 512 -c 2 -a 0 -i 29 -k AGT
+ -t 16.020875752 -s 0 -d 1 -p cbr -e 532 -c 2 -a 0 -i 29 -k RTR 
- -t 16.020875752 -s 0 -d 1 -p cbr -e 532 -c 2 -a 0 -i 29 -k RTR
h -t 16.020875752 -s 0 -d 1 -p cbr -e 532 -c 2 -a 0 -i 29 -k RTR
+ -t 16.026565752 -s 1 -d 4 -p cbr -e 532 -c 2 -a 0 -i 29 -k RTR 
- -t 16.026565752 -s 1 -d 4 -p cbr -e 532 -c 2 -a 0 -i 29 -k RTR
h -t 16.026565752 -s 1 -d 4 -p cbr -e 532 -c 2 -a 0 -i 29 -k RTR
+ -t 16.032679752 -s 4 -d 7 -p cbr -e 532 -c 2 -a 0 -i 29 -k RTR 
- -t 16.032679752 -s 4 -d 7 -p cbr -e 532 -c 2 -a 0 -i 29 -k RTR
h -t 16.032679752 -s 4 -d 7 -p cbr -e 532 -c 2 -a 0 -i 29 -k RTR
r -t 16.038653752 -s 7 -d 7 -p cbr -e 512 -c 2 -a 0 -i 29 -k AGT
+ -t 16.072590118 -s 0 -d -1 -p cbr -e 512 -c 2 -a 0 -i 30 -k AGT 
- -t 16.072590118 -s 0 -d -1 -p cbr -e 512 -c 2 -a 0 -i 30 -k AGT
h -t 16.072590118 -s 0 -d -1 -p cbr -e 512 -c 2 -a 0 -i 30 -k AGT
+ -t 16.072590118 -s 0 -d 1 -p cbr -e 532 -c 2 -a 0 -i 30 -k RTR 
- -t 16.072590118 -s 0 -d 1 -p cbr -e 532 -c 2 -a 0 -i 30 -k RTR
h -t 16.072590118 -s 0 -d 1 -p cbr -e 532 -c 2 -a 0 -i 30 -k RTR
+ -t 16.078280118 -s 1 -d 4 -p cbr -e 532 -c 2 -a 0 -i 30 -k RTR 
- -t 16.078280118 -s 1 -d 4 -p cbr -e 532 -c 2 -a 0 -i 30 -k RTR
h -t 16.078280118 -s 1 -d 4 -p cbr -e 532 -c 2 -a 0 -i 30 -k RTR
+ -t 16.084414118 -s 4 -d 7 -p cbr -e 532 -c 2 -a 0 -i 30 -k RTR 
- -t 16.084414118 -s 4 -d 7 -p cbr -e 532 -c 2 -a 0 -i 30 -k RTR
h -t 16.084414118 -s 4 -d 7 -p cbr -e 532 -c 2 -a 0 -i 30 -k RTR
r -t 16.090548118 -s 7 -d 7 -p cbr -e 512 -c 2 -a 0 -i 30 -k AGT
+ -t 16.105619210 -s 0 -d -1 -p cbr -e 512 -c 2 -a 0 -i 31 -k AGT 
- -t 16.105619210 -s 0 -d -1 -p cbr -e 512 -c 2 -a 0 -i 31 -k AGT
h -t 16.105619210 -s 0 -d -1 -p cbr -e 512 -c 2 -a 0 -i 31 -k AGT
+ -t 16.105619210 -s 0 -d 1 -p cbr -e 532 -c 2 -a 0 -i 31 -k RTR 
- -t 16.105619210 -s 0 -d 1 -p cbr -e 532 -c 2 -a 0 -i 31 -k RTR
h -t 16.105619210 -s 0 -d 1 -p cbr -e 532 -c 2 -a 0 -i 31 -k RTR
+ -t 16.111269210 -s 1 -d 4 -p cbr -e 532 -c 2 -a 0 -i 31 -k RTR 
- -t 16.111269210 -s 1 -d 4 -p cbr -e 532 -c 2 -a 0 -i 31 -k RTR
h -t 16.111269210 -s 1 -d 4 -p cbr -e 532 -c 2 -a 0 -i 31 -k RTR
+ -t 16.117443210 -s 4 -d 7 -p cbr -e 532 -c 2 -a 0 -i 31 -k RTR 
- -t 16.117443210 -s 4 -d 7 -p cbr -e 532 -c 2 -a 0 -i 31 -k RTR
h -t 16.117443210 -s 4 -d 7 -p cbr -e 532 -c 2 -a 0 -i 31 -k RTR
r -t 16.123397210 -s 7 -d 7 -p cbr -e 512 -c 2 -a 0 -i 31 -k AGT
+ -t 16.164520570 -s 0 -d -1 -p cbr -e 512 -c 2 -a 0 -i 32 -k AGT 
- -t 16.164520570 -s 0 -d -1 -p cbr -e 512 -c 2 -a 0 -i 32 -k AGT
h -t 16.164520570 -s 0 -d -1 -p cbr -e 512 -c 2 -a 0 -i 32 -k AGT
+ -t 16.164520570 -s 0 -d 1 -p cbr -e 532 -c 2 -a 0 -i 32 -k RTR 
- -t 16.164520570 -s 0 -d 1 -p cbr -e 532 -c 2 -a 0 -i 32 -k RTR
h -t 16.164520570 -s 0 -d 1 -p cbr -e 532 -c 2 -a 0 -i 32 -k RTR
+ -t 16.170090570 -s 1 -d 4 -p cbr -e 532 -c 2 -a 0 -i 32 -k RTR 
- -t 16.170090570 -s 1 -d 4 -p cbr -e 532 -c 2 -a 0 -i 32 -k RTR
h -t 16.170090570 -s 1 -d 4 -p cbr -e 532 -c 2 -a 0 -i 32 -k RTR
+ -t 16.176404570 -s 4 -d 7 -p cbr -e 532 -c 2 -a 0 -i 32 -k RTR 
- -t 16.176404570 -s 4 -d 7 -p cbr -e 532 -c 2 -a 0 -i 32 -k RTR
h -t 16.176404570 -s 4 -d 7 -p cbr -e 532 -c 2 -a 0 -i 32 -k RTR
r -t 16.182198570 -s 7 -d 7 -p cbr -e 512 -c 2 -a 0 -i 32 -k AGT
+ -t 16.217186158 -s 0 -d -1 -p cbr -e 512 -c 2 -a 0 -i 33 -k AGT 
- -t 16.217186158 -s 0 -d -1 -p cbr -e 512 -c 2 -a 0 -i 33 -k AGT
h -t 16.217186158 -s 0 -d -1 -p cbr -e 512 -c 2 -a 0 -i 33 -k AGT
+ -t 16.217186158 -s 0 -d 1 -p cbr -e 532 -c 2 -a 0 -i 33 -k RTR 
- -t 16.217186158 -s 0 -d 1 -p cbr -e 532 -c 2 -a 0 -i 33 -k RTR
h -t 16.217186158 -s 0 -d 1 -p cbr -e 532 -c 2 -a 0 -i 33 -k RTR
+ -t 16.223216158 -s 1 -d 4 -p cbr -e 532 -c 2 -a 0 -i 33 -k RTR 
- -t 16.223216158 -s 1 -d 4 -p cbr -e 532 -c 2 -a 0 -i 33 -k RTR
h -t 16.223216158 -s 1 -d 4 -p cbr -e 532 -c 2 -a 0 -i 33 -k RTR
+ -t 16.229170158 -s 4 -d 7 -p cbr -e 532 -c 2 -a 0 -i 33 -k RTR 
- -t 16.229170158 -s 4 -d 7 -p cbr -e 532 -c 2 -a 0 -i 33 -k RTR
h -t 16.229170158 -s 4 -d 7 -p cbr -e 532 -c 2 -a 0 -i 33 -k RTR
r -t 16.235424158 -s 7 -d 7 -p cbr -e 512 -c 2 -a 0 -i 33 -k AGT
+ -t 16.290143815 -s 0 -d -1 -p cbr -e 512 -c 2 -a 0 -i 34 -k AGT 
- -t 16.290143815 -s 0 -d -1 -p cbr -e 512 -c 2 -a 0 -i 34 -k AGT
h -t 16.290143815 -s 0 -d -1 -p cbr -e 512 -c 2 -a 0 -i 34 -k AGT
+ -t 16.290143815 -s 0 -d 1 -p cbr -e 532 -c 2 -a 0 -i 34 -k RTR 
- -t 16.290143815 -s 0 -d 1 -p cbr -e 532 -c 2 -a 0 -i 34 -k RTR
h -t 16.290143815 -s 0 -d 1 -p cbr -e 532 -c 2 -a 0 -i 34 -k RTR
+ -t 16.295773815 -s 1 -d 4 -p cbr -e 532 -c 2 -a 0 -i 34 -k RTR 
- -t 16.295773815 -s 1 -d 4 -p cbr -e 532 -c 2 -a 0 -i 34 -k RTR
h -t 16.295773815 -s 1 -d 4 -p cbr -e 532 -c 2 -a 0 -i 34 -k RTR
+ -t 16.302067815 -s 4 -d 7 -p cbr -e 532 -c 2 -a 0 -i 34 -k RTR 
- -t 16.302067815 -s 4 -d 7 -p cbr -e 532 -c 2 -a 0 -i 34 -k RTR
h -t 16.302067815 -s 4 -d 7 -p cbr -e 532 -c 2 -a 0 -i 34 -k RTR
r -t 16.307941815 -s 7 -d 7 -p cbr -e 512 -c 2 -a 0 -i 34 -k AGT
+ -t 16.323092951 -s 0 -d -1 -p cbr -e 512 -c 2 -a 0 -i 35 -k AGT 
- -t 16.323092951 -s 0 -d -1 -p cbr -e 512 -c 2 -a 0 -i 35 -k AGT
h -t 16.323092951 -s 0 -d -1 -p cbr -e 512 -c 2 -a 0 -i 35 -k AGT
+ -t 16.323092951 -s 0 -d 1 -p cbr -e 532 -c 2 -a 0 -i 35 -k RTR 
- -t 16.323092951 -s 0 -d 1 -p cbr -e 532 -c 2 -a 0 -i 35 -k RTR
h -t 16.323092951 -s 0 -d 1 -p cbr -e 532 -c 2 -a 0 -i 35 -k RTR
+ -t 16.328722951 -s 1 -d 4 -p cbr -e 532 -c 2 -a 0 -i 35 -k RTR 
- -t 16.328722951 -s 1 -d 4 -p cbr -e 532 -c 2 -a 0 -i 35 -k RTR
h -t 16.328722951 -s 1 -d 4 -p cbr -e 532 -c 2 -a 0 -i 35 -k RTR
+ -t 16.335016951 -s 4 -d 7 -p cbr -e 532 -c 2 -a 0 -i 35 -k RTR 
- -t 16.335016951 -s 4 -d 7 -p cbr -e 532 -c 2 -a 0 -i 35 -k RTR
h -t 16.335016951 -s 4 -d 7 -p cbr -e 532 -c 2 -a 0 -i 35 -k RTR
r -t 16.341050951 -s 7 -d 7 -p cbr -e 512 -c 2 -a 0 -i 35 -k AGT
+ -t 16.370328371 -s 0 -d -1 -p cbr -e 512 -c 2 -a 0 -i 36 -k AGT 
- -t 16.370328371 -s 0 -d -1 -p cbr -e 512 -c 2 -a 0 -i 36 -k AGT
h -t 16.370328371 -s 0 -d -1 -p cbr -e 512 -c 2 -a 0 -i 36 -k AGT
+ -t 16.370328371 -s 0 -d 1 -p cbr -e 532 -c 2 -a 0 -i 36 -k RTR 
- -t 16.370328371 -s 0 -d 1 -p cbr -e 532 -c 2 -a 0 -i 36 -k RTR
h -t 16.370328371 -s 0 -d 1 -p cbr -e 532 -c 2 -a 0 -i 36 -k RTR
+ -t 16.375838371 -s 1 -d 4 -p cbr -e 532 -c 2 -a 0 -i 36 -k RTR 
- -t 16.375838371 -s 1 -d 4 -p cbr -e 532 -c 2 -a 0 -i 36 -k RTR
h -t 16.375838371 -s 1 -d 4 -p cbr -e 532 -c 2 -a 0 -i 36 -k RTR
+ -t 16.381832371 -s 4 -d 7 -p cbr -e 532 -c 2 -a 0 -i 36 -k RTR 
- -t 16.381832371 -s 4 -d 7 -p cbr -e 532 -c 2 -a 0 -i 36 -k RTR
h -t 16.381832371 -s 4 -d 7 -p cbr -e 532 -c 2 -a 0 -i 36 -k RTR
r -t 16.387986371 -s 7 -d 7 -p cbr -e 512 -c 2 -a 0 -i 36 -k AGT
+ -t 16.432680076 -s 0 -d -1 -p cbr -e 512 -c 2 -a 0 -i 37 -k AGT 
- -t 16.432680076 -s 0 -d -1 -p cbr -e 512 -c 2 -a 0 -i 37 -k AGT
h -t 16.432680076 -s 0 -d -1 -p cbr -e 512 -c 2 -a 0 -i 37 -k AGT
+ -t 16.432680076 -s 0 -d 1 -p cbr -e 532 -c 2 -a 0 -i 37 -k RTR 
- -t 16.432680076 -s 0 -d 1 -p cbr -e 532 -c 2 -a 0 -i 37 -k RTR
h -t 16.432680076 -s 0 -d 1 -p cbr -e 532 -c 2 -a 0 -i 37 -k RTR
+ -t 16.438490076 -s 1 -d 4 -p cbr -e 532 -c 2 -a 0 -i 37 -k RTR 
- -t 16.438490076 -s 1 -d 4 -p cbr -e 532 -c 2 -a 0 -i 37 -k RTR
h -t 16.438490076 -s 1 -d 4 -p cbr -e 532 -c 2 -a 0 -i 37 -k RTR
+ -t 16.444584076 -s 4 -d 7 -p cbr -e 532 -c 2 -a 0 -i 37 -k RTR 
- -t 16.444584076 -s 4 -d 7 -p cbr -e 532 -c 2 -a 0 -i 37 -k RTR
h -t 16.444584076 -s 4 -d 7 -p cbr -e 532 -c 2 -a 0 -i 37 -k RTR
r -t 16.450658076 -s 7 -d 7 -p cbr -e 512 -c 2 -a 0 -i 37 -k AGT
+ -t 16.464498473 -s 0 -d -1 -p cbr -e 512 -c 2 -a 0 -i 38 -k AGT 
- -t 16.464498473 -s 0 -d -1 -p cbr -e 512 -c 2 -a 0 -i 38 -k AGT
h -t 16.464498473 -s 0 -d -1 -p cbr -e 512 -c 2 -a 0 -i 38 -k AGT
+ -t 16.464498473 -s 0 -d 1 -p cbr -e 532 -c 2 -a 0 -i 38 -k RTR 
- -t 16.464498473 -s 0 -d 1 -p cbr -e 532 -c 2 -a 0 -i 38 -k RTR
h -t 16.464498473 -s 0 -d 1 -p cbr -e 532 -c 2 -a 0 -i 38 -k RTR
+ -t 16.469988473 -s 1 -d 4 -p cbr -e 532 -c 2 -a 0 -i 38 -k RTR 
- -t 16.469988473 -s 1 -d 4 -p cbr -e 532 -c 2 -a 0 -i 38 -k RTR
h -t 16.469988473 -s 1 -d 4 -p cbr -e 532 -c 2 -a 0 -i 38 -k RTR
+ -t 16.475802473 -s 4 -d 7 -p cbr -e 532 -c 2 -a 0 -i 38 -k RTR 
- -t 16.475802473 -s 4 -d 7 -p cbr -e 532 -c 2 -a 0 -i 38 -k RTR
h -t 16.475802473 -s 4 -d 7 -p cbr -e 532 -c 2 -a 0 -i 38 -k RTR
r -t 16.481796473 -s 7 -d 7 -p cbr -e 512 -c 2 -a 0 -i 38 -k AGT
+ -t 16.504395654 -s 0 -d -1 -p cbr -e 512 -c 2 -a 0 -i 39 -k AGT 
- -t 16.504395654 -s 0 -d -1 -p cbr -e 512 -c 2 -a 0 -i 39 -k AGT
h -t 16.504395654 -s 0 -d -1 -p cbr -e 512 -c 2 -a 0 -i 39 -k AGT
+ -t 16.504395654 -s 0 -d 1 -p cbr -e 532 -c 2 -a 0 -i 39 -k RTR 
- -t 16.504395654 -s 0 -d 1 -p cbr -e 532 -c 2 -a 0 -i 39 -k RTR
h -t 16.504395654 -s 0 -d 1 -p cbr -e 532 -c 2 -a 0 -i 39 -k RTR
+ -t 16.510085654 -s 1 -d 4 -p cbr -e 532 -c 2 -a 0 -i 39 -k RTR 
- -t 16.510085654 -s 1 -d 4 -p cbr -e 532 -c 2 -a 0 -i 39 -k RTR
h -t 16.510085654 -s 1 -d 4 -p cbr -e 532 -c 2 -a 0 -i 39 -k RTR
+ -t 16.516179654 -s 4 -d 7 -p cbr -e 532 -c 2 -a 0 -i 39 -k RTR 
- -t 16.516179654 -s 4 -d 7 -p cbr -e 532 -c 2 -a 0 -i 39 -k RTR
h -t 16.516179654 -s 4 -d 7 -p cbr -e 532 -c 2 -a 0 -i 39 -k RTR