n -t * -s 0  -x 100 -y 0 -Z 0 -z 30  -v circle -c black
n -t * -s 1  -x 300 -y 0 -Z 0 -z 30  -v circle -c black
n -t * -s 2  -x 500 -y 0 -Z 0 -z 30  -v circle -c black
n -t * -s 3  -x 100 -y 100 -Z 0 -z 30  -v circle -c black
n -t * -s 4  -x 300 -y 100 -Z 0 -z 30  -v circle -c black
n -t * -s 5  -x 500 -y 100 -Z 0 -z 30  -v circle -c black
n -t * -s 6  -x 100 -y 200 -Z 0 -z 30  -v circle -c black
n -t * -s 7  -x 300 -y 200 -Z 0 -z 30  -v circle -c black
n -t * -s 8  -x 500 -y 200 -Z 0 -z 30  -v circle -c black
n -t * -s 9  -x 100 -y 300 -Z 0 -z 30  -v circle -c black
n -t * -s 10  -x 300 -y 300 -Z 0 -z 30  -v circle -c black
n -t * -s 11  -x 500 -y 300 -Z 0 -z 30  -v circle -c black
n -t * -s 12  -x 100 -y 400 -Z 0 -z 30  -v circle -c black
n -t * -s 13  -x 300 -y 400 -Z 0 -z 30  -v circle -c black
n -t * -s 14  -x 500 -y 400 -Z 0 -z 30  -v circle -c black
n -t * -s 15  -x 100 -y 500 -Z 0 -z 30  -v circle -c black
n -t * -s 16  -x 300 -y 500 -Z 0 -z 30  -v circle -c black
n -t * -s 17  -x 500 -y 500 -Z 0 -z 30  -v circle -c black
n -t * -s 18  -x 400 -y 500 -Z 0 -z 30  -v circle -c black
n -t * -s 19  -x 200 -y 500 -Z 0 -z 30  -v circle -c black
n -t * -s 20  -x 400 -y 400 -Z 0 -z 30  -v circle -c black
n -t * -s 21  -x 200 -y 400 -Z 0 -z 30  -v circle -c black
n -t * -s 22  -x 400 -y 300 -Z 0 -z 30  -v circle -c black
n -t * -s 23  -x 200 -y 300 -Z 0 -z 30  -v circle -c black
n -t * -s 24  -x 400 -y 200 -Z 0 -z 30  -v circle -c black
n -t * -s 25  -x 200 -y 200 -Z 0 -z 30  -v circle -c black
n -t * -s 26  -x 400 -y 100 -Z 0 -z 30  -v circle -c black
n -t * -s 27  -x 200 -y 100 -Z 0 -z 30  -v circle -c black
V -t * -v 1.0a5 -a 0
W -t * -x 500 -y 500
A -t * -n 1 -p 0 -o 0xffffffff -c 31 -a 1
A -t * -h 1 -m 2147483647 -s 0
+ -t 0.000000000 -s 0 -d -1 -p WCETT -e 284 -c 2 -a 0 -i 0 -k RTR 
- -t 0.000000000 -s 0 -d -1 -p WCETT -e 284 -c 2 -a 0 -i 0 -k RTR
h -t 0.000000000 -s 0 -d -1 -p WCETT -e 284 -c 2 -a 0 -i 0 -k RTR
+ -t 0.000000000 -s 1 -d -1 -p WCETT -e 284 -c 2 -a 0 -i 0 -k RTR 
- -t 0.000000000 -s 1 -d -1 -p WCETT -e 284 -c 2 -a 0 -i 0 -k RTR
h -t 0.000000000 -s 1 -d -1 -p WCETT -e 284 -c 2 -a 0 -i 0 -k RTR
+ -t 0.000000000 -s 2 -d -1 -p WCETT -e 284 -c 2 -a 0 -i 0 -k RTR 
- -t 0.000000000 -s 2 -d -1 -p WCETT -e 284 -c 2 -a 0 -i 0 -k RTR
h -t 0.000000000 -s 2 -d -1 -p WCETT -e 284 -c 2 -a 0 -i 0 -k RTR
+ -t 0.000000000 -s 3 -d -1 -p WCETT -e 284 -c 2 -a 0 -i 0 -k RTR 
- -t 0.000000000 -s 3 -d -1 -p WCETT -e 284 -c 2 -a 0 -i 0 -k RTR
h -t 0.000000000 -s 3 -d -1 -p WCETT -e 284 -c 2 -a 0 -i 0 -k RTR
+ -t 0.000000000 -s 4 -d -1 -p WCETT -e 284 -c 2 -a 0 -i 0 -k RTR 
- -t 0.000000000 -s 4 -d -1 -p WCETT -e 284 -c 2 -a 0 -i 0 -k RTR
h -t 0.000000000 -s 4 -d -1 -p WCETT -e 284 -c 2 -a 0 -i 0 -k RTR
+ -t 0.000000000 -s 5 -d -1 -p WCETT -e 284 -c 2 -a 0 -i 0 -k RTR 
- -t 0.000000000 -s 5 -d -1 -p WCETT -e 284 -c 2 -a 0 -i 0 -k RTR
h -t 0.000000000 -s 5 -d -1 -p WCETT -e 284 -c 2 -a 0 -i 0 -k RTR
+ -t 0.000000000 -s 6 -d -1 -p WCETT -e 284 -c 2 -a 0 -i 0 -k RTR 
- -t 0.000000000 -s 6 -d -1 -p WCETT -e 284 -c 2 -a 0 -i 0 -k RTR
h -t 0.000000000 -s 6 -d -1 -p WCETT -e 284 -c 2 -a 0 -i 0 -k RTR
+ -t 0.000000000 -s 7 -d -1 -p WCETT -e 284 -c 2 -a 0 -i 0 -k RTR 
- -t 0.000000000 -s 7 -d -1 -p WCETT -e 284 -c 2 -a 0 -i 0 -k RTR
h -t 0.000000000 -s 7 -d -1 -p WCETT -e 284 -c 2 -a 0 -i 0 -k RTR
+ -t 0.000000000 -s 8 -d -1 -p WCETT -e 284 -c 2 -a 0 -i 0 -k RTR 
- -t 0.000000000 -s 8 -d -1 -p WCETT -e 284 -c 2 -a 0 -i 0 -k RTR
h -t 0.000000000 -s 8 -d -1 -p WCETT -e 284 -c 2 -a 0 -i 0 -k RTR
+ -t 0.000000000 -s 9 -d -1 -p WCETT -e 284 -c 2 -a 0 -i 0 -k RTR 
- -t 0.000000000 -s 9 -d -1 -p WCETT -e 284 -c 2 -a 0 -i 0 -k RTR
h -t 0.000000000 -s 9 -d -1 -p WCETT -e 284 -c 2 -a 0 -i 0 -k RTR
+ -t 0.000000000 -s 10 -d -1 -p WCETT -e 284 -c 2 -a 0 -i 0 -k RTR 
- -t 0.000000000 -s 10 -d -1 -p WCETT -e 284 -c 2 -a 0 -i 0 -k RTR
h -t 0.000000000 -s 10 -d -1 -p WCETT -e 284 -c 2 -a 0 -i 0 -k RTR
+ -t 0.000000000 -s 11 -d -1 -p WCETT -e 284 -c 2 -a 0 -i 0 -k RTR 
- -t 0.000000000 -s 11 -d -1 -p WCETT -e 284 -c 2 -a 0 -i 0 -k RTR
h -t 0.000000000 -s 11 -d -1 -p WCETT -e 284 -c 2 -a 0 -i 0 -k RTR
+ -t 0.000000000 -s 12 -d -1 -p WCETT -e 284 -c 2 -a 0 -i 0 -k RTR 
- -t 0.000000000 -s 12 -d -1 -p WCETT -e 284 -c 2 -a 0 -i 0 -k RTR
h -t 0.000000000 -s 12 -d -1 -p WCETT -e 284 -c 2 -a 0 -i 0 -k RTR
+ -t 0.000000000 -s 13 -d -1 -p WCETT -e 284 -c 2 -a 0 -i 0 -k RTR 
- -t 0.000000000 -s 13 -d -1 -p WCETT -e 284 -c 2 -a 0 -i 0 -k RTR
h -t 0.000000000 -s 13 -d -1 -p WCETT -e 284 -c 2 -a 0 -i 0 -k RTR
+ -t 0.000000000 -s 14 -d -1 -p WCETT -e 284 -c 2 -a 0 -i 0 -k RTR 
- -t 0.000000000 -s 14 -d -1 -p WCETT -e 284 -c 2 -a 0 -i 0 -k RTR
h -t 0.000000000 -s 14 -d -1 -p WCETT -e 284 -c 2 -a 0 -i 0 -k RTR
+ -t 0.000000000 -s 15 -d -1 -p WCETT -e 284 -c 2 -a 0 -i 0 -k RTR 
- -t 0.000000000 -s 15 -d -1 -p WCETT -e 284 -c 2 -a 0 -i 0 -k RTR
h -t 0.000000000 -s 15 -d -1 -p WCETT -e 284 -c 2 -a 0 -i 0 -k RTR
+ -t 0.000000000 -s 16 -d -1 -p WCETT -e 284 -c 2 -a 0 -i 0 -k RTR 
- -t 0.000000000 -s 16 -d -1 -p WCETT -e 284 -c 2 -a 0 -i 0 -k RTR
h -t 0.000000000 -s 16 -d -1 -p WCETT -e 284 -c 2 -a 0 -i 0 -k RTR
+ -t 0.000000000 -s 17 -d -1 -p WCETT -e 284 -c 2 -a 0 -i 0 -k RTR 
- -t 0.000000000 -s 17 -d -1 -p WCETT -e 284 -c 2 -a 0 -i 0 -k RTR
h -t 0.000000000 -s 17 -d -1 -p WCETT -e 284 -c 2 -a 0 -i 0 -k RTR
+ -t 0.000000000 -s 18 -d -1 -p WCETT -e 284 -c 2 -a 0 -i 0 -k RTR 
- -t 0.000000000 -s 18 -d -1 -p WCETT -e 284 -c 2 -a 0 -i 0 -k RTR
h -t 0.000000000 -s 18 -d -1 -p WCETT -e 284 -c 2 -a 0 -i 0 -k RTR
+ -t 0.000000000 -s 19 -d -1 -p WCETT -e 284 -c 2 -a 0 -i 0 -k RTR 
- -t 0.000000000 -s 19 -d -1 -p WCETT -e 284 -c 2 -a 0 -i 0 -k RTR
h -t 0.000000000 -s 19 -d -1 -p WCETT -e 284 -c 2 -a 0 -i 0 -k RTR
+ -t 0.000000000 -s 20 -d -1 -p WCETT -e 284 -c 2 -a 0 -i 0 -k RTR 
- -t 0.000000000 -s 20 -d -1 -p WCETT -e 284 -c 2 -a 0 -i 0 -k RTR
h -t 0.000000000 -s 20 -d -1 -p WCETT -e 284 -c 2 -a 0 -i 0 -k RTR
+ -t 0.000000000 -s 21 -d -1 -p WCETT -e 284 -c 2 -a 0 -i 0 -k RTR 
- -t 0.000000000 -s 21 -d -1 -p WCETT -e 284 -c 2 -a 0 -i 0 -k RTR
h -t 0.000000000 -s 21 -d -1 -p WCETT -e 284 -c 2 -a 0 -i 0 -k RTR
+ -t 0.000000000 -s 22 -d -1 -p WCETT -e 284 -c 2 -a 0 -i 0 -k RTR 
- -t 0.000000000 -s 22 -d -1 -p WCETT -e 284 -c 2 -a 0 -i 0 -k RTR
h -t 0.000000000 -s 22 -d -1 -p WCETT -e 284 -c 2 -a 0 -i 0 -k RTR
+ -t 0.000000000 -s 23 -d -1 -p WCETT -e 284 -c 2 -a 0 -i 0 -k RTR 
- -t 0.000000000 -s 23 -d -1 -p WCETT -e 284 -c 2 -a 0 -i 0 -k RTR
h -t 0.000000000 -s 23 -d -1 -p WCETT -e 284 -c 2 -a 0 -i 0 -k RTR
+ -t 0.000000000 -s 24 -d -1 -p WCETT -e 284 -c 2 -a 0 -i 0 -k RTR 
- -t 0.000000000 -s 24 -d -1 -p WCETT -e 284 -c 2 -a 0 -i 0 -k RTR
h -t 0.000000000 -s 24 -d -1 -p WCETT -e 284 -c 2 -a 0 -i 0 -k RTR
+ -t 0.000000000 -s 25 -d -1 -p WCETT -e 284 -c 2 -a 0 -i 0 -k RTR 
- -t 0.000000000 -s 25 -d -1 -p WCETT -e 284 -c 2 -a 0 -i 0 -k RTR
h -t 0.000000000 -s 25 -d -1 -p WCETT -e 284 -c 2 -a 0 -i 0 -k RTR
+ -t 0.000000000 -s 26 -d -1 -p WCETT -e 284 -c 2 -a 0 -i 0 -k RTR 
- -t 0.000000000 -s 26 -d -1 -p WCETT -e 284 -c 2 -a 0 -i 0 -k RTR
h -t 0.000000000 -s 26 -d -1 -p WCETT -e 284 -c 2 -a 0 -i 0 -k RTR
+ -t 0.000000000 -s 27 -d -1 -p WCETT -e 284 -c 2 -a 0 -i 0 -k RTR 
- -t 0.000000000 -s 27 -d -1 -p WCETT -e 284 -c 2 -a 0 -i 0 -k RTR
h -t 0.000000000 -s 27 -d -1 -p WCETT -e 284 -c 2 -a 0 -i 0 -k RTR
r -t 0.002788333 -s 1 -d -1 -p WCETT -e 284 -c 2 -a 0 -i 0 -k RTR
r -t 0.002788333 -s 27 -d -1 -p WCETT -e 284 -c 2 -a 0 -i 0 -k RTR
r -t 0.002788333 -s 7 -d -1 -p WCETT -e 284 -c 2 -a 0 -i 0 -k RTR
r -t 0.002788333 -s 26 -d -1 -p WCETT -e 284 -c 2 -a 0 -i 0 -k RTR
r -t 0.002788471 -s 25 -d -1 -p WCETT -e 284 -c 2 -a 0 -i 0 -k RTR
r -t 0.002788471 -s 24 -d -1 -p WCETT -e 284 -c 2 -a 0 -i 0 -k RTR
r -t 0.002788667 -s 3 -d -1 -p WCETT -e 284 -c 2 -a 0 -i 0 -k RTR
r -t 0.002788667 -s 10 -d -1 -p WCETT -e 284 -c 2 -a 0 -i 0 -k RTR
r -t 0.002788667 -s 5 -d -1 -p WCETT -e 284 -c 2 -a 0 -i 0 -k RTR
r -t 0.002788745 -s 23 -d -1 -p WCETT -e 284 -c 2 -a 0 -i 0 -k RTR
r -t 0.002788745 -s 6 -d -1 -p WCETT -e 284 -c 2 -a 0 -i 0 -k RTR
r -t 0.002788745 -s 0 -d -1 -p WCETT -e 284 -c 2 -a 0 -i 0 -k RTR
r -t 0.002788745 -s 22 -d -1 -p WCETT -e 284 -c 2 -a 0 -i 0 -k RTR
r -t 0.002788745 -s 2 -d -1 -p WCETT -e 284 -c 2 -a 0 -i 0 -k RTR
r -t 0.002788745 -s 8 -d -1 -p WCETT -e 284 -c 2 -a 0 -i 0 -k RTR
r -t 0.005547079 -s 20 -d -1 -p WCETT -e 284 -c 2 -a 0 -i 0 -k RTR
r -t 0.005547079 -s 10 -d -1 -p WCETT -e 284 -c 2 -a 0 -i 0 -k RTR
r -t 0.005547079 -s 24 -d -1 -p WCETT -e 284 -c 2 -a 0 -i 0 -k RTR
r -t 0.005547079 -s 11 -d -1 -p WCETT -e 284 -c 2 -a 0 -i 0 -k RTR
r -t 0.005547217 -s 13 -d -1 -p WCETT -e 284 -c 2 -a 0 -i 0 -k RTR
r -t 0.005547217 -s 7 -d -1 -p WCETT -e 284 -c 2 -a 0 -i 0 -k RTR
r -t 0.005547217 -s 8 -d -1 -p WCETT -e 284 -c 2 -a 0 -i 0 -k RTR
r -t 0.005547217 -s 14 -d -1 -p WCETT -e 284 -c 2 -a 0 -i 0 -k RTR
r -t 0.005547412 -s 18 -d -1 -p WCETT -e 284 -c 2 -a 0 -i 0 -k RTR
r -t 0.005547412 -s 23 -d -1 -p WCETT -e 284 -c 2 -a 0 -i 0 -k RTR
r -t 0.005547412 -s 26 -d -1 -p WCETT -e 284 -c 2 -a 0 -i 0 -k RTR
r -t 0.005547491 -s 16 -d -1 -p WCETT -e 284 -c 2 -a 0 -i 0 -k RTR
r -t 0.005547491 -s 4 -d -1 -p WCETT -e 284 -c 2 -a 0 -i 0 -k RTR
r -t 0.005547491 -s 25 -d -1 -p WCETT -e 284 -c 2 -a 0 -i 0 -k RTR
r -t 0.005547491 -s 21 -d -1 -p WCETT -e 284 -c 2 -a 0 -i 0 -k RTR
r -t 0.005547491 -s 5 -d -1 -p WCETT -e 284 -c 2 -a 0 -i 0 -k RTR
r -t 0.005547491 -s 17 -d -1 -p WCETT -e 284 -c 2 -a 0 -i 0 -k RTR
r -t 0.008325412 -s 8 -d -1 -p WCETT -e 284 -c 2 -a 0 -i 0 -k RTR
r -t 0.008325412 -s 22 -d -1 -p WCETT -e 284 -c 2 -a 0 -i 0 -k RTR
r -t 0.008325412 -s 14 -d -1 -p WCETT -e 284 -c 2 -a 0 -i 0 -k RTR
r -t 0.008325550 -s 24 -d -1 -p WCETT -e 284 -c 2 -a 0 -i 0 -k RTR
r -t 0.008325550 -s 20 -d -1 -p WCETT -e 284 -c 2 -a 0 -i 0 -k RTR
r -t 0.008325745 -s 5 -d -1 -p WCETT -e 284 -c 2 -a 0 -i 0 -k RTR
r -t 0.008325745 -s 10 -d -1 -p WCETT -e 284 -c 2 -a 0 -i 0 -k RTR
r -t 0.008325745 -s 17 -d -1 -p WCETT -e 284 -c 2 -a 0 -i 0 -k RTR
r -t 0.008325824 -s 26 -d -1 -p WCETT -e 284 -c 2 -a 0 -i 0 -k RTR
r -t 0.008325824 -s 18 -d -1 -p WCETT -e 284 -c 2 -a 0 -i 0 -k RTR
r -t 0.008325824 -s 13 -d -1 -p WCETT -e 284 -c 2 -a 0 -i 0 -k RTR
r -t 0.008325824 -s 7 -d -1 -p WCETT -e 284 -c 2 -a 0 -i 0 -k RTR
r -t 0.011164079 -s 2 -d -1 -p WCETT -e 284 -c 2 -a 0 -i 0 -k RTR
r -t 0.011164079 -s 26 -d -1 -p WCETT -e 284 -c 2 -a 0 -i 0 -k RTR
r -t 0.011164079 -s 8 -d -1 -p WCETT -e 284 -c 2 -a 0 -i 0 -k RTR
r -t 0.011164217 -s 24 -d -1 -p WCETT -e 284 -c 2 -a 0 -i 0 -k RTR
r -t 0.011164412 -s 4 -d -1 -p WCETT -e 284 -c 2 -a 0 -i 0 -k RTR
r -t 0.011164412 -s 11 -d -1 -p WCETT -e 284 -c 2 -a 0 -i 0 -k RTR
r -t 0.011164491 -s 1 -d -1 -p WCETT -e 284 -c 2 -a 0 -i 0 -k RTR
r -t 0.014182412 -s 5 -d -1 -p WCETT -e 284 -c 2 -a 0 -i 0 -k RTR
r -t 0.014182550 -s 26 -d -1 -p WCETT -e 284 -c 2 -a 0 -i 0 -k RTR
r -t 0.014182745 -s 1 -d -1 -p WCETT -e 284 -c 2 -a 0 -i 0 -k RTR
r -t 0.014182745 -s 8 -d -1 -p WCETT -e 284 -c 2 -a 0 -i 0 -k RTR
r -t 0.014182824 -s 4 -d -1 -p WCETT -e 284 -c 2 -a 0 -i 0 -k RTR
r -t 0.015091236 -s 15 -d -1 -p WCETT -e 284 -c 2 -a 0 -i 0 -k RTR
r -t 0.015091236 -s 21 -d -1 -p WCETT -e 284 -c 2 -a 0 -i 0 -k RTR
r -t 0.015091236 -s 16 -d -1 -p WCETT -e 284 -c 2 -a 0 -i 0 -k RTR
r -t 0.015091374 -s 12 -d -1 -p WCETT -e 284 -c 2 -a 0 -i 0 -k RTR
r -t 0.015091374 -s 13 -d -1 -p WCETT -e 284 -c 2 -a 0 -i 0 -k RTR
r -t 0.015091569 -s 23 -d -1 -p WCETT -e 284 -c 2 -a 0 -i 0 -k RTR
r -t 0.015091648 -s 9 -d -1 -p WCETT -e 284 -c 2 -a 0 -i 0 -k RTR
r -t 0.017849707 -s 10 -d -1 -p WCETT -e 284 -c 2 -a 0 -i 0 -k RTR
r -t 0.017849707 -s 21 -d -1 -p WCETT -e 284 -c 2 -a 0 -i 0 -k RTR
r -t 0.017849707 -s 16 -d -1 -p WCETT -e 284 -c 2 -a 0 -i 0 -k RTR
r -t 0.017849707 -s 20 -d -1 -p WCETT -e 284 -c 2 -a 0 -i 0 -k RTR
r -t 0.017849846 -s 23 -d -1 -p WCETT -e 284 -c 2 -a 0 -i 0 -k RTR
r -t 0.017849846 -s 19 -d -1 -p WCETT -e 284 -c 2 -a 0 -i 0 -k RTR
r -t 0.017849846 -s 18 -d -1 -p WCETT -e 284 -c 2 -a 0 -i 0 -k RTR
r -t 0.017849846 -s 22 -d -1 -p WCETT -e 284 -c 2 -a 0 -i 0 -k RTR
r -t 0.017850041 -s 7 -d -1 -p WCETT -e 284 -c 2 -a 0 -i 0 -k RTR
r -t 0.017850041 -s 12 -d -1 -p WCETT -e 284 -c 2 -a 0 -i 0 -k RTR
r -t 0.017850041 -s 14 -d -1 -p WCETT -e 284 -c 2 -a 0 -i 0 -k RTR
r -t 0.017850119 -s 25 -d -1 -p WCETT -e 284 -c 2 -a 0 -i 0 -k RTR
r -t 0.017850119 -s 15 -d -1 -p WCETT -e 284 -c 2 -a 0 -i 0 -k RTR
r -t 0.017850119 -s 9 -d -1 -p WCETT -e 284 -c 2 -a 0 -i 0 -k RTR
r -t 0.017850119 -s 24 -d -1 -p WCETT -e 284 -c 2 -a 0 -i 0 -k RTR
r -t 0.017850119 -s 11 -d -1 -p WCETT -e 284 -c 2 -a 0 -i 0 -k RTR
r -t 0.017850119 -s 17 -d -1 -p WCETT -e 284 -c 2 -a 0 -i 0 -k RTR
r -t 0.020648041 -s 18 -d -1 -p WCETT -e 284 -c 2 -a 0 -i 0 -k RTR
r -t 0.020648041 -s 13 -d -1 -p WCETT -e 284 -c 2 -a 0 -i 0 -k RTR
r -t 0.020648041 -s 22 -d -1 -p WCETT -e 284 -c 2 -a 0 -i 0 -k RTR
r -t 0.020648041 -s 14 -d -1 -p WCETT -e 284 -c 2 -a 0 -i 0 -k RTR
r -t 0.020648179 -s 16 -d -1 -p WCETT -e 284 -c 2 -a 0 -i 0 -k RTR
r -t 0.020648179 -s 10 -d -1 -p WCETT -e 284 -c 2 -a 0 -i 0 -k RTR
r -t 0.020648179 -s 11 -d -1 -p WCETT -e 284 -c 2 -a 0 -i 0 -k RTR
r -t 0.020648179 -s 17 -d -1 -p WCETT -e 284 -c 2 -a 0 -i 0 -k RTR
r -t 0.020648374 -s 21 -d -1 -p WCETT -e 284 -c 2 -a 0 -i 0 -k RTR
r -t 0.020648374 -s 24 -d -1 -p WCETT -e 284 -c 2 -a 0 -i 0 -k RTR
r -t 0.020648453 -s 7 -d -1 -p WCETT -e 284 -c 2 -a 0 -i 0 -k RTR
r -t 0.020648453 -s 23 -d -1 -p WCETT -e 284 -c 2 -a 0 -i 0 -k RTR
r -t 0.020648453 -s 19 -d -1 -p WCETT -e 284 -c 2 -a 0 -i 0 -k RTR
r -t 0.020648453 -s 8 -d -1 -p WCETT -e 284 -c 2 -a 0 -i 0 -k RTR
r -t 0.023406512 -s 7 -d -1 -p WCETT -e 284 -c 2 -a 0 -i 0 -k RTR
r -t 0.023406512 -s 13 -d -1 -p WCETT -e 284 -c 2 -a 0 -i 0 -k RTR
r -t 0.023406786 -s 4 -d -1 -p WCETT -e 284 -c 2 -a 0 -i 0 -k RTR
r -t 0.023406786 -s 10 -d -1 -p WCETT -e 284 -c 2 -a 0 -i 0 -k RTR
r -t 0.026529729 -s 3 -d -1 -p WCETT -e 284 -c 2 -a 0 -i 0 -k RTR
r -t 0.026529786 -s 13 -d -1 -p WCETT -e 284 -c 2 -a 0 -i 0 -k RTR
r -t 0.026529786 -s 19 -d -1 -p WCETT -e 284 -c 2 -a 0 -i 0 -k RTR
r -t 0.026529786 -s 18 -d -1 -p WCETT -e 284 -c 2 -a 0 -i 0 -k RTR
r -t 0.026529867 -s 27 -d -1 -p WCETT -e 284 -c 2 -a 0 -i 0 -k RTR
r -t 0.026529924 -s 21 -d -1 -p WCETT -e 284 -c 2 -a 0 -i 0 -k RTR
r -t 0.026529924 -s 20 -d -1 -p WCETT -e 284 -c 2 -a 0 -i 0 -k RTR
r -t 0.026530062 -s 6 -d -1 -p WCETT -e 284 -c 2 -a 0 -i 0 -k RTR
r -t 0.026530062 -s 1 -d -1 -p WCETT -e 284 -c 2 -a 0 -i 0 -k RTR
r -t 0.026530119 -s 10 -d -1 -p WCETT -e 284 -c 2 -a 0 -i 0 -k RTR
r -t 0.026530119 -s 15 -d -1 -p WCETT -e 284 -c 2 -a 0 -i 0 -k RTR
r -t 0.026530119 -s 17 -d -1 -p WCETT -e 284 -c 2 -a 0 -i 0 -k RTR
r -t 0.026530141 -s 4 -d -1 -p WCETT -e 284 -c 2 -a 0 -i 0 -k RTR
r -t 0.026530198 -s 12 -d -1 -p WCETT -e 284 -c 2 -a 0 -i 0 -k RTR
r -t 0.026530198 -s 22 -d -1 -p WCETT -e 284 -c 2 -a 0 -i 0 -k RTR
r -t 0.026530198 -s 14 -d -1 -p WCETT -e 284 -c 2 -a 0 -i 0 -k RTR
r -t 0.029368119 -s 16 -d -1 -p WCETT -e 284 -c 2 -a 0 -i 0 -k RTR
r -t 0.029368119 -s 20 -d -1 -p WCETT -e 284 -c 2 -a 0 -i 0 -k RTR
r -t 0.029368119 -s 17 -d -1 -p WCETT -e 284 -c 2 -a 0 -i 0 -k RTR
r -t 0.029368258 -s 13 -d -1 -p WCETT -e 284 -c 2 -a 0 -i 0 -k RTR
r -t 0.029368258 -s 14 -d -1 -p WCETT -e 284 -c 2 -a 0 -i 0 -k RTR
r -t 0.029368453 -s 19 -d -1 -p WCETT -e 284 -c 2 -a 0 -i 0 -k RTR
r -t 0.029368453 -s 22 -d -1 -p WCETT -e 284 -c 2 -a 0 -i 0 -k RTR
r -t 0.029368532 -s 10 -d -1 -p WCETT -e 284 -c 2 -a 0 -i 0 -k RTR
r -t 0.029368532 -s 21 -d -1 -p WCETT -e 284 -c 2 -a 0 -i 0 -k RTR
r -t 0.029368532 -s 11 -d -1 -p WCETT -e 284 -c 2 -a 0 -i 0 -k RTR
r -t 0.032146591 -s 11 -d -1 -p WCETT -e 284 -c 2 -a 0 -i 0 -k RTR
r -t 0.032146591 -s 20 -d -1 -p WCETT -e 284 -c 2 -a 0 -i 0 -k RTR
r -t 0.032146591 -s 17 -d -1 -p WCETT -e 284 -c 2 -a 0 -i 0 -k RTR
r -t 0.032146729 -s 22 -d -1 -p WCETT -e 284 -c 2 -a 0 -i 0 -k RTR
r -t 0.032146729 -s 18 -d -1 -p WCETT -e 284 -c 2 -a 0 -i 0 -k RTR
r -t 0.032146924 -s 8 -d -1 -p WCETT -e 284 -c 2 -a 0 -i 0 -k RTR
r -t 0.032146924 -s 13 -d -1 -p WCETT -e 284 -c 2 -a 0 -i 0 -k RTR
r -t 0.032147003 -s 24 -d -1 -p WCETT -e 284 -c 2 -a 0 -i 0 -k RTR
r -t 0.032147003 -s 16 -d -1 -p WCETT -e 284 -c 2 -a 0 -i 0 -k RTR
r -t 0.032147003 -s 10 -d -1 -p WCETT -e 284 -c 2 -a 0 -i 0 -k RTR
r -t 0.034984924 -s 14 -d -1 -p WCETT -e 284 -c 2 -a 0 -i 0 -k RTR
r -t 0.034984924 -s 18 -d -1 -p WCETT -e 284 -c 2 -a 0 -i 0 -k RTR
r -t 0.034985062 -s 20 -d -1 -p WCETT -e 284 -c 2 -a 0 -i 0 -k RTR
r -t 0.034985258 -s 11 -d -1 -p WCETT -e 284 -c 2 -a 0 -i 0 -k RTR
r -t 0.034985258 -s 16 -d -1 -p WCETT -e 284 -c 2 -a 0 -i 0 -k RTR
r -t 0.035530258 -s 0 -d -1 -p WCETT -e 284 -c 2 -a 0 -i 0 -k RTR
r -t 0.038653312 -s 19 -d -1 -p WCETT -e 284 -c 2 -a 0 -i 0 -k RTR
r -t 0.038653312 -s 12 -d -1 -p WCETT -e 284 -c 2 -a 0 -i 0 -k RTR
r -t 0.038653312 -s 23 -d -1 -p WCETT -e 284 -c 2 -a 0 -i 0 -k RTR
r -t 0.038653312 -s 13 -d -1 -p WCETT -e 284 -c 2 -a 0 -i 0 -k RTR
r -t 0.038653450 -s 15 -d -1 -p WCETT -e 284 -c 2 -a 0 -i 0 -k RTR
r -t 0.038653450 -s 9 -d -1 -p WCETT -e 284 -c 2 -a 0 -i 0 -k RTR
r -t 0.038653450 -s 10 -d -1 -p WCETT -e 284 -c 2 -a 0 -i 0 -k RTR
r -t 0.038653450 -s 16 -d -1 -p WCETT -e 284 -c 2 -a 0 -i 0 -k RTR
r -t 0.038653645 -s 25 -d -1 -p WCETT -e 284 -c 2 -a 0 -i 0 -k RTR
r -t 0.038653645 -s 20 -d -1 -p WCETT -e 284 -c 2 -a 0 -i 0 -k RTR
r -t 0.038653724 -s 6 -d -1 -p WCETT -e 284 -c 2 -a 0 -i 0 -k RTR
r -t 0.038653724 -s 7 -d -1 -p WCETT -e 284 -c 2 -a 0 -i 0 -k RTR
r -t 0.038653724 -s 18 -d -1 -p WCETT -e 284 -c 2 -a 0 -i 0 -k RTR
r -t 0.038653724 -s 22 -d -1 -p WCETT -e 284 -c 2 -a 0 -i 0 -k RTR
r -t 0.041411978 -s 23 -d -1 -p WCETT -e 284 -c 2 -a 0 -i 0 -k RTR
r -t 0.041411978 -s 6 -d -1 -p WCETT -e 284 -c 2 -a 0 -i 0 -k RTR
r -t 0.041411978 -s 27 -d -1 -p WCETT -e 284 -c 2 -a 0 -i 0 -k RTR
r -t 0.041411978 -s 7 -d -1 -p WCETT -e 284 -c 2 -a 0 -i 0 -k RTR
r -t 0.041412116 -s 9 -d -1 -p WCETT -e 284 -c 2 -a 0 -i 0 -k RTR
r -t 0.041412116 -s 3 -d -1 -p WCETT -e 284 -c 2 -a 0 -i 0 -k RTR
r -t 0.041412116 -s 4 -d -1 -p WCETT -e 284 -c 2 -a 0 -i 0 -k RTR
r -t 0.041412116 -s 10 -d -1 -p WCETT -e 284 -c 2 -a 0 -i 0 -k RTR
r -t 0.041412312 -s 21 -d -1 -p WCETT -e 284 -c 2 -a 0 -i 0 -k RTR
r -t 0.041412312 -s 24 -d -1 -p WCETT -e 284 -c 2 -a 0 -i 0 -k RTR
r -t 0.041412390 -s 12 -d -1 -p WCETT -e 284 -c 2 -a 0 -i 0 -k RTR
r -t 0.041412390 -s 0 -d -1 -p WCETT -e 284 -c 2 -a 0 -i 0 -k RTR
r -t 0.041412390 -s 1 -d -1 -p WCETT -e 284 -c 2 -a 0 -i 0 -k RTR
r -t 0.041412390 -s 13 -d -1 -p WCETT -e 284 -c 2 -a 0 -i 0 -k RTR
r -t 0.041412390 -s 22 -d -1 -p WCETT -e 284 -c 2 -a 0 -i 0 -k RTR
r -t 0.041412390 -s 26 -d -1 -p WCETT -e 284 -c 2 -a 0 -i 0 -k RTR
r -t 0.044170312 -s 21 -d -1 -p WCETT -e 284 -c 2 -a 0 -i 0 -k RTR
r -t 0.044170312 -s 9 -d -1 -p WCETT -e 284 -c 2 -a 0 -i 0 -k RTR
r -t 0.044170312 -s 25 -d -1 -p WCETT -e 284 -c 2 -a 0 -i 0 -k RTR
r -t 0.044170312 -s 10 -d -1 -p WCETT -e 284 -c 2 -a 0 -i 0 -k RTR
r -t 0.044170450 -s 12 -d -1 -p WCETT -e 284 -c 2 -a 0 -i 0 -k RTR
r -t 0.044170450 -s 6 -d -1 -p WCETT -e 284 -c 2 -a 0 -i 0 -k RTR
r -t 0.044170450 -s 7 -d -1 -p WCETT -e 284 -c 2 -a 0 -i 0 -k RTR
r -t 0.044170450 -s 13 -d -1 -p WCETT -e 284 -c 2 -a 0 -i 0 -k RTR
r -t 0.044170645 -s 19 -d -1 -p WCETT -e 284 -c 2 -a 0 -i 0 -k RTR
r -t 0.044170645 -s 27 -d -1 -p WCETT -e 284 -c 2 -a 0 -i 0 -k RTR
r -t 0.044170645 -s 22 -d -1 -p WCETT -e 284 -c 2 -a 0 -i 0 -k RTR
r -t 0.044170724 -s 15 -d -1 -p WCETT -e 284 -c 2 -a 0 -i 0 -k RTR
r -t 0.044170724 -s 3 -d -1 -p WCETT -e 284 -c 2 -a 0 -i 0 -k RTR
r -t 0.044170724 -s 4 -d -1 -p WCETT -e 284 -c 2 -a 0 -i 0 -k RTR
r -t 0.044170724 -s 16 -d -1 -p WCETT -e 284 -c 2 -a 0 -i 0 -k RTR
r -t 0.044170724 -s 20 -d -1 -p WCETT -e 284 -c 2 -a 0 -i 0 -k RTR
r -t 0.044170724 -s 24 -d -1 -p WCETT -e 284 -c 2 -a 0 -i 0 -k RTR
r -t 0.046949057 -s 22 -d -1 -p WCETT -e 284 -c 2 -a 0 -i 0 -k RTR
r -t 0.046949057 -s 7 -d -1 -p WCETT -e 284 -c 2 -a 0 -i 0 -k RTR
r -t 0.046949057 -s 26 -d -1 -p WCETT -e 284 -c 2 -a 0 -i 0 -k RTR
r -t 0.046949057 -s 8 -d -1 -p WCETT -e 284 -c 2 -a 0 -i 0 -k RTR
r -t 0.046949195 -s 10 -d -1 -p WCETT -e 284 -c 2 -a 0 -i 0 -k RTR
r -t 0.046949195 -s 4 -d -1 -p WCETT -e 284 -c 2 -a 0 -i 0 -k RTR
r -t 0.046949195 -s 5 -d -1 -p WCETT -e 284 -c 2 -a 0 -i 0 -k RTR
r -t 0.046949195 -s 11 -d -1 -p WCETT -e 284 -c 2 -a 0 -i 0 -k RTR
r -t 0.046949390 -s 20 -d -1 -p WCETT -e 284 -c 2 -a 0 -i 0 -k RTR
r -t 0.046949390 -s 25 -d -1 -p WCETT -e 284 -c 2 -a 0 -i 0 -k RTR
r -t 0.046949469 -s 13 -d -1 -p WCETT -e 284 -c 2 -a 0 -i 0 -k RTR
r -t 0.046949469 -s 1 -d -1 -p WCETT -e 284 -c 2 -a 0 -i 0 -k RTR
r -t 0.046949469 -s 27 -d -1 -p WCETT -e 284 -c 2 -a 0 -i 0 -k RTR
r -t 0.046949469 -s 23 -d -1 -p WCETT -e 284 -c 2 -a 0 -i 0 -k RTR
r -t 0.046949469 -s 2 -d -1 -p WCETT -e 284 -c 2 -a 0 -i 0 -k RTR
r -t 0.046949469 -s 14 -d -1 -p WCETT -e 284 -c 2 -a 0 -i 0 -k RTR
r -t 0.049727390 -s 5 -d -1 -p WCETT -e 284 -c 2 -a 0 -i 0 -k RTR
r -t 0.049727390 -s 24 -d -1 -p WCETT -e 284 -c 2 -a 0 -i 0 -k RTR
r -t 0.049727390 -s 11 -d -1 -p WCETT -e 284 -c 2 -a 0 -i 0 -k RTR
r -t 0.049727528 -s 26 -d -1 -p WCETT -e 284 -c 2 -a 0 -i 0 -k RTR
r -t 0.049727528 -s 22 -d -1 -p WCETT -e 284 -c 2 -a 0 -i 0 -k RTR
r -t 0.049727724 -s 2 -d -1 -p WCETT -e 284 -c 2 -a 0 -i 0 -k RTR
r -t 0.049727724 -s 7 -d -1 -p WCETT -e 284 -c 2 -a 0 -i 0 -k RTR
r -t 0.049727724 -s 14 -d -1 -p WCETT -e 284 -c 2 -a 0 -i 0 -k RTR
r -t 0.049727802 -s 20 -d -1 -p WCETT -e 284 -c 2 -a 0 -i 0 -k RTR
r -t 0.049727802 -s 10 -d -1 -p WCETT -e 284 -c 2 -a 0 -i 0 -k RTR
r -t 0.049727802 -s 4 -d -1 -p WCETT -e 284 -c 2 -a 0 -i 0 -k RTR
r -t 0.052785862 -s 24 -d -1 -p WCETT -e 284 -c 2 -a 0 -i 0 -k RTR
r -t 0.052785862 -s 4 -d -1 -p WCETT -e 284 -c 2 -a 0 -i 0 -k RTR
r -t 0.052785862 -s 5 -d -1 -p WCETT -e 284 -c 2 -a 0 -i 0 -k RTR
r -t 0.052786000 -s 7 -d -1 -p WCETT -e 284 -c 2 -a 0 -i 0 -k RTR
r -t 0.052786000 -s 1 -d -1 -p WCETT -e 284 -c 2 -a 0 -i 0 -k RTR
r -t 0.052786000 -s 2 -d -1 -p WCETT -e 284 -c 2 -a 0 -i 0 -k RTR
r -t 0.052786000 -s 8 -d -1 -p WCETT -e 284 -c 2 -a 0 -i 0 -k RTR
r -t 0.052786195 -s 22 -d -1 -p WCETT -e 284 -c 2 -a 0 -i 0 -k RTR
r -t 0.052786195 -s 27 -d -1 -p WCETT -e 284 -c 2 -a 0 -i 0 -k RTR
r -t 0.052786274 -s 10 -d -1 -p WCETT -e 284 -c 2 -a 0 -i 0 -k RTR
r -t 0.052786274 -s 25 -d -1 -p WCETT -e 284 -c 2 -a 0 -i 0 -k RTR
r -t 0.052786274 -s 11 -d -1 -p WCETT -e 284 -c 2 -a 0 -i 0 -k RTR
r -t 0.055764528 -s 25 -d -1 -p WCETT -e 284 -c 2 -a 0 -i 0 -k RTR
r -t 0.055764528 -s 3 -d -1 -p WCETT -e 284 -c 2 -a 0 -i 0 -k RTR
r -t 0.055764528 -s 4 -d -1 -p WCETT -e 284 -c 2 -a 0 -i 0 -k RTR
r -t 0.055764666 -s 6 -d -1 -p WCETT -e 284 -c 2 -a 0 -i 0 -k RTR
r -t 0.055764666 -s 0 -d -1 -p WCETT -e 284 -c 2 -a 0 -i 0 -k RTR
r -t 0.055764666 -s 1 -d -1 -p WCETT -e 284 -c 2 -a 0 -i 0 -k RTR
r -t 0.055764666 -s 7 -d -1 -p WCETT -e 284 -c 2 -a 0 -i 0 -k RTR
r -t 0.055764862 -s 23 -d -1 -p WCETT -e 284 -c 2 -a 0 -i 0 -k RTR
r -t 0.055764862 -s 26 -d -1 -p WCETT -e 284 -c 2 -a 0 -i 0 -k RTR
r -t 0.055764940 -s 9 -d -1 -p WCETT -e 284 -c 2 -a 0 -i 0 -k RTR
r -t 0.055764940 -s 10 -d -1 -p WCETT -e 284 -c 2 -a 0 -i 0 -k RTR
r -t 0.055764940 -s 24 -d -1 -p WCETT -e 284 -c 2 -a 0 -i 0 -k RTR
r -t 0.058563000 -s 3 -d -1 -p WCETT -e 284 -c 2 -a 0 -i 0 -k RTR
r -t 0.058563000 -s 9 -d -1 -p WCETT -e 284 -c 2 -a 0 -i 0 -k RTR
r -t 0.058563274 -s 6 -d -1 -p WCETT -e 284 -c 2 -a 0 -i 0 -k RTR
r -t 0.058563274 -s 12 -d -1 -p WCETT -e 284 -c 2 -a 0 -i 0 -k RTR
r -t 0.061685666 -s 9 -d -1 -p WCETT -e 284 -c 2 -a 0 -i 0 -k RTR
r -t 0.061685666 -s 15 -d -1 -p WCETT -e 284 -c 2 -a 0 -i 0 -k RTR
r -t 0.061685666 -s 21 -d -1 -p WCETT -e 284 -c 2 -a 0 -i 0 -k RTR
r -t 0.061685805 -s 19 -d -1 -p WCETT -e 284 -c 2 -a 0 -i 0 -k RTR
r -t 0.061685805 -s 23 -d -1 -p WCETT -e 284 -c 2 -a 0 -i 0 -k RTR
r -t 0.061686000 -s 6 -d -1 -p WCETT -e 284 -c 2 -a 0 -i 0 -k RTR
r -t 0.061686000 -s 13 -d -1 -p WCETT -e 284 -c 2 -a 0 -i 0 -k RTR
r -t 0.061686079 -s 25 -d -1 -p WCETT -e 284 -c 2 -a 0 -i 0 -k RTR
r -t 0.061686079 -s 10 -d -1 -p WCETT -e 284 -c 2 -a 0 -i 0 -k RTR
r -t 0.061686079 -s 16 -d -1 -p WCETT -e 284 -c 2 -a 0 -i 0 -k RTR
r -t 0.064909157 -s 4 -d -1 -p WCETT -e 284 -c 2 -a 0 -i 0 -k RTR
r -t 0.064909295 -s 27 -d -1 -p WCETT -e 284 -c 2 -a 0 -i 0 -k RTR
r -t 0.064909295 -s 26 -d -1 -p WCETT -e 284 -c 2 -a 0 -i 0 -k RTR
r -t 0.064909491 -s 0 -d -1 -p WCETT -e 284 -c 2 -a 0 -i 0 -k RTR
r -t 0.064909491 -s 7 -d -1 -p WCETT -e 284 -c 2 -a 0 -i 0 -k RTR
r -t 0.064909491 -s 2 -d -1 -p WCETT -e 284 -c 2 -a 0 -i 0 -k RTR
r -t 0.064909569 -s 25 -d -1 -p WCETT -e 284 -c 2 -a 0 -i 0 -k RTR
r -t 0.064909569 -s 3 -d -1 -p WCETT -e 284 -c 2 -a 0 -i 0 -k RTR
r -t 0.064909569 -s 24 -d -1 -p WCETT -e 284 -c 2 -a 0 -i 0 -k RTR
r -t 0.064909569 -s 5 -d -1 -p WCETT -e 284 -c 2 -a 0 -i 0 -k RTR
+ -t 1.000000000 -s 0 -d -1 -p WCETT -e 284 -c 2 -a 0 -i 0 -k RTR 
- -t 1.000000000 -s 0 -d -1 -p WCETT -e 284 -c 2 -a 0 -i 0 -k RTR
h -t 1.000000000 -s 0 -d -1 -p WCETT -e 284 -c 2 -a 0 -i 0 -k RTR
+ -t 1.000000000 -s 1 -d -1 -p WCETT -e 284 -c 2 -a 0 -i 0 -k RTR 
- -t 1.000000000 -s 1 -d -1 -p WCETT -e 284 -c 2 -a 0 -i 0 -k RTR
h -t 1.000000000 -s 1 -d -1 -p WCETT -e 284 -c 2 -a 0 -i 0 -k RTR
+ -t 1.000000000 -s 2 -d -1 -p WCETT -e 284 -c 2 -a 0 -i 0 -k RTR 
- -t 1.000000000 -s 2 -d -1 -p WCETT -e 284 -c 2 -a 0 -i 0 -k RTR
h -t 1.000000000 -s 2 -d -1 -p WCETT -e 284 -c 2 -a 0 -i 0 -k RTR
+ -t 1.000000000 -s 3 -d -1 -p WCETT -e 284 -c 2 -a 0 -i 0 -k RTR 
- -t 1.000000000 -s 3 -d -1 -p WCETT -e 284 -c 2 -a 0 -i 0 -k RTR
h -t 1.000000000 -s 3 -d -1 -p WCETT -e 284 -c 2 -a 0 -i 0 -k RTR
+ -t 1.000000000 -s 4 -d -1 -p WCETT -e 284 -c 2 -a 0 -i 0 -k RTR 
- -t 1.000000000 -s 4 -d -1 -p WCETT -e 284 -c 2 -a 0 -i 0 -k RTR
h -t 1.000000000 -s 4 -d -1 -p WCETT -e 284 -c 2 -a 0 -i 0 -k RTR
+ -t 1.000000000 -s 5 -d -1 -p WCETT -e 284 -c 2 -a 0 -i 0 -k RTR 
- -t 1.000000000 -s 5 -d -1 -p WCETT -e 284 -c 2 -a 0 -i 0 -k RTR
h -t 1.000000000 -s 5 -d -1 -p WCETT -e 284 -c 2 -a 0 -i 0 -k RTR
+ -t 1.000000000 -s 6 -d -1 -p WCETT -e 284 -c 2 -a 0 -i 0 -k RTR 
- -t 1.000000000 -s 6 -d -1 -p WCETT -e 284 -c 2 -a 0 -i 0 -k RTR
h -t 1.000000000 -s 6 -d -1 -p WCETT -e 284 -c 2 -a 0 -i 0 -k RTR
+ -t 1.000000000 -s 7 -d -1 -p WCETT -e 284 -c 2 -a 0 -i 0 -k RTR 
- -t 1.000000000 -s 7 -d -1 -p WCETT -e 284 -c 2 -a 0 -i 0 -k RTR
h -t 1.000000000 -s 7 -d -1 -p WCETT -e 284 -c 2 -a 0 -i 0 -k RTR
+ -t 1.000000000 -s 8 -d -1 -p WCETT -e 284 -c 2 -a 0 -i 0 -k RTR 
- -t 1.000000000 -s 8 -d -1 -p WCETT -e 284 -c 2 -a 0 -i 0 -k RTR
h -t 1.000000000 -s 8 -d -1 -p WCETT -e 284 -c 2 -a 0 -i 0 -k RTR
+ -t 1.000000000 -s 9 -d -1 -p WCETT -e 284 -c 2 -a 0 -i 0 -k RTR 
- -t 1.000000000 -s 9 -d -1 -p WCETT -e 284 -c 2 -a 0 -i 0 -k RTR
h -t 1.000000000 -s 9 -d -1 -p WCETT -e 284 -c 2 -a 0 -i 0 -k RTR
+ -t 1.000000000 -s 10 -d -1 -p WCETT -e 284 -c 2 -a 0 -i 0 -k RTR 
- -t 1.000000000 -s 10 -d -1 -p WCETT -e 284 -c 2 -a 0 -i 0 -k RTR
h -t 1.000000000 -s 10 -d -1 -p WCETT -e 284 -c 2 -a 0 -i 0 -k RTR
+ -t 1.000000000 -s 11 -d -1 -p WCETT -e 284 -c 2 -a 0 -i 0 -k RTR 
- -t 1.000000000 -s 11 -d -1 -p WCETT -e 284 -c 2 -a 0 -i 0 -k RTR
h -t 1.000000000 -s 11 -d -1 -p WCETT -e 284 -c 2 -a 0 -i 0 -k RTR
+ -t 1.000000000 -s 12 -d -1 -p WCETT -e 284 -c 2 -a 0 -i 0 -k RTR 
- -t 1.000000000 -s 12 -d -1 -p WCETT -e 284 -c 2 -a 0 -i 0 -k RTR
h -t 1.000000000 -s 12 -d -1 -p WCETT -e 284 -c 2 -a 0 -i 0 -k RTR
+ -t 1.000000000 -s 13 -d -1 -p WCETT -e 284 -c 2 -a 0 -i 0 -k RTR 
- -t 1.000000000 -s 13 -d -1 -p WCETT -e 284 -c 2 -a 0 -i 0 -k RTR
h -t 1.000000000 -s 13 -d -1 -p WCETT -e 284 -c 2 -a 0 -i 0 -k RTR
+ -t 1.000000000 -s 14 -d -1 -p WCETT -e 284 -c 2 -a 0 -i 0 -k RTR 
- -t 1.000000000 -s 14 -d -1 -p WCETT -e 284 -c 2 -a 0 -i 0 -k RTR
h -t 1.000000000 -s 14 -d -1 -p WCETT -e 284 -c 2 -a 0 -i 0 -k RTR
+ -t 1.000000000 -s 15 -d -1 -p WCETT -e 284 -c 2 -a 0 -i 0 -k RTR 
- -t 1.000000000 -s 15 -d -1 -p WCETT -e 284 -c 2 -a 0 -i 0 -k RTR
h -t 1.000000000 -s 15 -d -1 -p WCETT -e 284 -c 2 -a 0 -i 0 -k RTR
+ -t 1.000000000 -s 16 -d -1 -p WCETT -e 284 -c 2 -a 0 -i 0 -k RTR 
- -t 1.000000000 -s 16 -d -1 -p WCETT -e 284 -c 2 -a 0 -i 0 -k RTR
h -t 1.000000000 -s 16 -d -1 -p WCETT -e 284 -c 2 -a 0 -i 0 -k RTR
+ -t 1.000000000 -s 17 -d -1 -p WCETT -e 284 -c 2 -a 0 -i 0 -k RTR 
- -t 1.000000000 -s 17 -d -1 -p WCETT -e 284 -c 2 -a 0 -i 0 -k RTR
h -t 1.000000000 -s 17 -d -1 -p WCETT -e 284 -c 2 -a 0 -i 0 -k RTR
+ -t 1.000000000 -s 18 -d -1 -p WCETT -e 284 -c 2 -a 0 -i 0 -k RTR 
- -t 1.000000000 -s 18 -d -1 -p WCETT -e 284 -c 2 -a 0 -i 0 -k RTR
h -t 1.000000000 -s 18 -d -1 -p WCETT -e 284 -c 2 -a 0 -i 0 -k RTR
+ -t 1.000000000 -s 19 -d -1 -p WCETT -e 284 -c 2 -a 0 -i 0 -k RTR 
- -t 1.000000000 -s 19 -d -1 -p WCETT -e 284 -c 2 -a 0 -i 0 -k RTR
h -t 1.000000000 -s 19 -d -1 -p WCETT -e 284 -c 2 -a 0 -i 0 -k RTR
+ -t 1.000000000 -s 20 -d -1 -p WCETT -e 284 -c 2 -a 0 -i 0 -k RTR 
- -t 1.000000000 -s 20 -d -1 -p WCETT -e 284 -c 2 -a 0 -i 0 -k RTR
h -t 1.000000000 -s 20 -d -1 -p WCETT -e 284 -c 2 -a 0 -i 0 -k RTR
+ -t 1.000000000 -s 21 -d -1 -p WCETT -e 284 -c 2 -a 0 -i 0 -k RTR 
- -t 1.000000000 -s 21 -d -1 -p WCETT -e 284 -c 2 -a 0 -i 0 -k RTR
h -t 1.000000000 -s 21 -d -1 -p WCETT -e 284 -c 2 -a 0 -i 0 -k RTR
+ -t 1.000000000 -s 22 -d -1 -p WCETT -e 284 -c 2 -a 0 -i 0 -k RTR 
- -t 1.000000000 -s 22 -d -1 -p WCETT -e 284 -c 2 -a 0 -i 0 -k RTR
h -t 1.000000000 -s 22 -d -1 -p WCETT -e 284 -c 2 -a 0 -i 0 -k RTR
+ -t 1.000000000 -s 23 -d -1 -p WCETT -e 284 -c 2 -a 0 -i 0 -k RTR 
- -t 1.000000000 -s 23 -d -1 -p WCETT -e 284 -c 2 -a 0 -i 0 -k RTR
h -t 1.000000000 -s 23 -d -1 -p WCETT -e 284 -c 2 -a 0 -i 0 -k RTR
+ -t 1.000000000 -s 24 -d -1 -p WCETT -e 284 -c 2 -a 0 -i 0 -k RTR 
- -t 1.000000000 -s 24 -d -1 -p WCETT -e 284 -c 2 -a 0 -i 0 -k RTR
h -t 1.000000000 -s 24 -d -1 -p WCETT -e 284 -c 2 -a 0 -i 0 -k RTR
+ -t 1.000000000 -s 25 -d -1 -p WCETT -e 284 -c 2 -a 0 -i 0 -k RTR 