n -t * -s 0  -x 100 -y 100 -Z 0 -z 30  -v circle -c black
n -t * -s 1  -x 300 -y 100 -Z 0 -z 30  -v circle -c black
n -t * -s 2  -x 500 -y 100 -Z 0 -z 30  -v circle -c black
n -t * -s 3  -x 100 -y 300 -Z 0 -z 30  -v circle -c black
n -t * -s 4  -x 300 -y 300 -Z 0 -z 30  -v circle -c black
n -t * -s 5  -x 500 -y 300 -Z 0 -z 30  -v circle -c black
n -t * -s 6  -x 100 -y 500 -Z 0 -z 30  -v circle -c black
n -t * -s 7  -x 300 -y 500 -Z 0 -z 30  -v circle -c black
n -t * -s 8  -x 500 -y 500 -Z 0 -z 30  -v circle -c black
n -t * -s 9  -x 500 -y 200 -Z 0 -z 30  -v circle -c black
V -t * -v 1.0a5 -a 0
W -t * -x 500 -y 500
A -t * -n 1 -p 0 -o 0xffffffff -c 31 -a 1
A -t * -h 1 -m 2147483647 -s 0
+ -t 0.000000000 -s 0 -d -1 -p WCETT -e 284 -c 2 -a 0 -i 0 -k RTR 
- -t 0.000000000 -s 0 -d -1 -p WCETT -e 284 -c 2 -a 0 -i 0 -k RTR
h -t 0.000000000 -s 0 -d -1 -p WCETT -e 284 -c 2 -a 0 -i 0 -k RTR
+ -t 0.000000000 -s 1 -d -1 -p WCETT -e 284 -c 2 -a 0 -i 0 -k RTR 
- -t 0.000000000 -s 1 -d -1 -p WCETT -e 284 -c 2 -a 0 -i 0 -k RTR
h -t 0.000000000 -s 1 -d -1 -p WCETT -e 284 -c 2 -a 0 -i 0 -k RTR
+ -t 0.000000000 -s 2 -d -1 -p WCETT -e 284 -c 2 -a 0 -i 0 -k RTR 
- -t 0.000000000 -s 2 -d -1 -p WCETT -e 284 -c 2 -a 0 -i 0 -k RTR
h -t 0.000000000 -s 2 -d -1 -p WCETT -e 284 -c 2 -a 0 -i 0 -k RTR
+ -t 0.000000000 -s 3 -d -1 -p WCETT -e 284 -c 2 -a 0 -i 0 -k RTR 
- -t 0.000000000 -s 3 -d -1 -p WCETT -e 284 -c 2 -a 0 -i 0 -k RTR
h -t 0.000000000 -s 3 -d -1 -p WCETT -e 284 -c 2 -a 0 -i 0 -k RTR
+ -t 0.000000000 -s 4 -d -1 -p WCETT -e 284 -c 2 -a 0 -i 0 -k RTR 
- -t 0.000000000 -s 4 -d -1 -p WCETT -e 284 -c 2 -a 0 -i 0 -k RTR
h -t 0.000000000 -s 4 -d -1 -p WCETT -e 284 -c 2 -a 0 -i 0 -k RTR
+ -t 0.000000000 -s 5 -d -1 -p WCETT -e 284 -c 2 -a 0 -i 0 -k RTR 
- -t 0.000000000 -s 5 -d -1 -p WCETT -e 284 -c 2 -a 0 -i 0 -k RTR
h -t 0.000000000 -s 5 -d -1 -p WCETT -e 284 -c 2 -a 0 -i 0 -k RTR
+ -t 0.000000000 -s 6 -d -1 -p WCETT -e 284 -c 2 -a 0 -i 0 -k RTR 
- -t 0.000000000 -s 6 -d -1 -p WCETT -e 284 -c 2 -a 0 -i 0 -k RTR
h -t 0.000000000 -s 6 -d -1 -p WCETT -e 284 -c 2 -a 0 -i 0 -k RTR
+ -t 0.000000000 -s 7 -d -1 -p WCETT -e 284 -c 2 -a 0 -i 0 -k RTR 
- -t 0.000000000 -s 7 -d -1 -p WCETT -e 284 -c 2 -a 0 -i 0 -k RTR
h -t 0.000000000 -s 7 -d -1 -p WCETT -e 284 -c 2 -a 0 -i 0 -k RTR
+ -t 0.000000000 -s 8 -d -1 -p WCETT -e 284 -c 2 -a 0 -i 0 -k RTR 
- -t 0.000000000 -s 8 -d -1 -p WCETT -e 284 -c 2 -a 0 -i 0 -k RTR
h -t 0.000000000 -s 8 -d -1 -p WCETT -e 284 -c 2 -a 0 -i 0 -k RTR
+ -t 0.000000000 -s 9 -d -1 -p WCETT -e 284 -c 2 -a 0 -i 0 -k RTR 
- -t 0.000000000 -s 9 -d -1 -p WCETT -e 284 -c 2 -a 0 -i 0 -k RTR
h -t 0.000000000 -s 9 -d -1 -p WCETT -e 284 -c 2 -a 0 -i 0 -k RTR
r -t 0.002788333 -s 9 -d -1 -p WCETT -e 284 -c 2 -a 0 -i 0 -k RTR
r -t 0.002788667 -s 2 -d -1 -p WCETT -e 284 -c 2 -a 0 -i 0 -k RTR
r -t 0.002788667 -s 4 -d -1 -p WCETT -e 284 -c 2 -a 0 -i 0 -k RTR
r -t 0.002788667 -s 8 -d -1 -p WCETT -e 284 -c 2 -a 0 -i 0 -k RTR
r -t 0.005767333 -s 5 -d -1 -p WCETT -e 284 -c 2 -a 0 -i 0 -k RTR
r -t 0.005767333 -s 7 -d -1 -p WCETT -e 284 -c 2 -a 0 -i 0 -k RTR
r -t 0.009494824 -s 0 -d -1 -p WCETT -e 284 -c 2 -a 0 -i 0 -k RTR
r -t 0.009494824 -s 4 -d -1 -p WCETT -e 284 -c 2 -a 0 -i 0 -k RTR
r -t 0.009494824 -s 2 -d -1 -p WCETT -e 284 -c 2 -a 0 -i 0 -k RTR
r -t 0.009494903 -s 9 -d -1 -p WCETT -e 284 -c 2 -a 0 -i 0 -k RTR
r -t 0.012273491 -s 1 -d -1 -p WCETT -e 284 -c 2 -a 0 -i 0 -k RTR
r -t 0.012273491 -s 3 -d -1 -p WCETT -e 284 -c 2 -a 0 -i 0 -k RTR
r -t 0.012273491 -s 7 -d -1 -p WCETT -e 284 -c 2 -a 0 -i 0 -k RTR
r -t 0.012273491 -s 5 -d -1 -p WCETT -e 284 -c 2 -a 0 -i 0 -k RTR
r -t 0.012273569 -s 9 -d -1 -p WCETT -e 284 -c 2 -a 0 -i 0 -k RTR
r -t 0.015051903 -s 5 -d -1 -p WCETT -e 284 -c 2 -a 0 -i 0 -k RTR
r -t 0.015051903 -s 2 -d -1 -p WCETT -e 284 -c 2 -a 0 -i 0 -k RTR
r -t 0.015052315 -s 4 -d -1 -p WCETT -e 284 -c 2 -a 0 -i 0 -k RTR
r -t 0.015052315 -s 1 -d -1 -p WCETT -e 284 -c 2 -a 0 -i 0 -k RTR
r -t 0.018030236 -s 9 -d -1 -p WCETT -e 284 -c 2 -a 0 -i 0 -k RTR
r -t 0.018030569 -s 1 -d -1 -p WCETT -e 284 -c 2 -a 0 -i 0 -k RTR
r -t 0.018030569 -s 5 -d -1 -p WCETT -e 284 -c 2 -a 0 -i 0 -k RTR
r -t 0.021498569 -s 4 -d -1 -p WCETT -e 284 -c 2 -a 0 -i 0 -k RTR
r -t 0.021498569 -s 6 -d -1 -p WCETT -e 284 -c 2 -a 0 -i 0 -k RTR
r -t 0.021498569 -s 8 -d -1 -p WCETT -e 284 -c 2 -a 0 -i 0 -k RTR
r -t 0.024701512 -s 0 -d -1 -p WCETT -e 284 -c 2 -a 0 -i 0 -k RTR
r -t 0.024701512 -s 6 -d -1 -p WCETT -e 284 -c 2 -a 0 -i 0 -k RTR
r -t 0.024701512 -s 4 -d -1 -p WCETT -e 284 -c 2 -a 0 -i 0 -k RTR
+ -t 1.000000000 -s 0 -d -1 -p WCETT -e 284 -c 2 -a 0 -i 0 -k RTR 
- -t 1.000000000 -s 0 -d -1 -p WCETT -e 284 -c 2 -a 0 -i 0 -k RTR
h -t 1.000000000 -s 0 -d -1 -p WCETT -e 284 -c 2 -a 0 -i 0 -k RTR
+ -t 1.000000000 -s 1 -d -1 -p WCETT -e 284 -c 2 -a 0 -i 0 -k RTR 
- -t 1.000000000 -s 1 -d -1 -p WCETT -e 284 -c 2 -a 0 -i 0 -k RTR
h -t 1.000000000 -s 1 -d -1 -p WCETT -e 284 -c 2 -a 0 -i 0 -k RTR
+ -t 1.000000000 -s 2 -d -1 -p WCETT -e 284 -c 2 -a 0 -i 0 -k RTR 
- -t 1.000000000 -s 2 -d -1 -p WCETT -e 284 -c 2 -a 0 -i 0 -k RTR
h -t 1.000000000 -s 2 -d -1 -p WCETT -e 284 -c 2 -a 0 -i 0 -k RTR
+ -t 1.000000000 -s 3 -d -1 -p WCETT -e 284 -c 2 -a 0 -i 0 -k RTR 
- -t 1.000000000 -s 3 -d -1 -p WCETT -e 284 -c 2 -a 0 -i 0 -k RTR
h -t 1.000000000 -s 3 -d -1 -p WCETT -e 284 -c 2 -a 0 -i 0 -k RTR
+ -t 1.000000000 -s 4 -d -1 -p WCETT -e 284 -c 2 -a 0 -i 0 -k RTR 
- -t 1.000000000 -s 4 -d -1 -p WCETT -e 284 -c 2 -a 0 -i 0 -k RTR
h -t 1.000000000 -s 4 -d -1 -p WCETT -e 284 -c 2 -a 0 -i 0 -k RTR
+ -t 1.000000000 -s 5 -d -1 -p WCETT -e 284 -c 2 -a 0 -i 0 -k RTR 
- -t 1.000000000 -s 5 -d -1 -p WCETT -e 284 -c 2 -a 0 -i 0 -k RTR
h -t 1.000000000 -s 5 -d -1 -p WCETT -e 284 -c 2 -a 0 -i 0 -k RTR
+ -t 1.000000000 -s 6 -d -1 -p WCETT -e 284 -c 2 -a 0 -i 0 -k RTR 
- -t 1.000000000 -s 6 -d -1 -p WCETT -e 284 -c 2 -a 0 -i 0 -k RTR
h -t 1.000000000 -s 6 -d -1 -p WCETT -e 284 -c 2 -a 0 -i 0 -k RTR
+ -t 1.000000000 -s 7 -d -1 -p WCETT -e 284 -c 2 -a 0 -i 0 -k RTR 
- -t 1.000000000 -s 7 -d -1 -p WCETT -e 284 -c 2 -a 0 -i 0 -k RTR
h -t 1.000000000 -s 7 -d -1 -p WCETT -e 284 -c 2 -a 0 -i 0 -k RTR
+ -t 1.000000000 -s 8 -d -1 -p WCETT -e 284 -c 2 -a 0 -i 0 -k RTR 
- -t 1.000000000 -s 8 -d -1 -p WCETT -e 284 -c 2 -a 0 -i 0 -k RTR
h -t 1.000000000 -s 8 -d -1 -p WCETT -e 284 -c 2 -a 0 -i 0 -k RTR
+ -t 1.000000000 -s 9 -d -1 -p WCETT -e 284 -c 2 -a 0 -i 0 -k RTR 
- -t 1.000000000 -s 9 -d -1 -p WCETT -e 284 -c 2 -a 0 -i 0 -k RTR
h -t 1.000000000 -s 9 -d -1 -p WCETT -e 284 -c 2 -a 0 -i 0 -k RTR
r -t 1.002808667 -s 0 -d -1 -p WCETT -e 284 -c 2 -a 0 -i 0 -k RTR
r -t 1.002808667 -s 6 -d -1 -p WCETT -e 284 -c 2 -a 0 -i 0 -k RTR
r -t 1.002808667 -s 4 -d -1 -p WCETT -e 284 -c 2 -a 0 -i 0 -k RTR
r -t 1.005707333 -s 3 -d -1 -p WCETT -e 284 -c 2 -a 0 -i 0 -k RTR
r -t 1.005707333 -s 7 -d -1 -p WCETT -e 284 -c 2 -a 0 -i 0 -k RTR
r -t 1.009275100 -s 1 -d -1 -p WCETT -e 284 -c 2 -a 0 -i 0 -k RTR
r -t 1.009275100 -s 3 -d -1 -p WCETT -e 284 -c 2 -a 0 -i 0 -k RTR
r -t 1.009275100 -s 7 -d -1 -p WCETT -e 284 -c 2 -a 0 -i 0 -k RTR
r -t 1.009275100 -s 5 -d -1 -p WCETT -e 284 -c 2 -a 0 -i 0 -k RTR
r -t 1.009275179 -s 9 -d -1 -p WCETT -e 284 -c 2 -a 0 -i 0 -k RTR
r -t 1.012133767 -s 0 -d -1 -p WCETT -e 284 -c 2 -a 0 -i 0 -k RTR
r -t 1.012133767 -s 4 -d -1 -p WCETT -e 284 -c 2 -a 0 -i 0 -k RTR
r -t 1.012133767 -s 2 -d -1 -p WCETT -e 284 -c 2 -a 0 -i 0 -k RTR
r -t 1.012133846 -s 9 -d -1 -p WCETT -e 284 -c 2 -a 0 -i 0 -k RTR
r -t 1.014952434 -s 3 -d -1 -p WCETT -e 284 -c 2 -a 0 -i 0 -k RTR
r -t 1.014952434 -s 1 -d -1 -p WCETT -e 284 -c 2 -a 0 -i 0 -k RTR
r -t 1.018899591 -s 9 -d -1 -p WCETT -e 284 -c 2 -a 0 -i 0 -k RTR
r -t 1.018899924 -s 2 -d -1 -p WCETT -e 284 -c 2 -a 0 -i 0 -k RTR
r -t 1.018899924 -s 4 -d -1 -p WCETT -e 284 -c 2 -a 0 -i 0 -k RTR
r -t 1.018899924 -s 8 -d -1 -p WCETT -e 284 -c 2 -a 0 -i 0 -k RTR
r -t 1.021657924 -s 5 -d -1 -p WCETT -e 284 -c 2 -a 0 -i 0 -k RTR
r -t 1.021657924 -s 2 -d -1 -p WCETT -e 284 -c 2 -a 0 -i 0 -k RTR
r -t 1.021658336 -s 4 -d -1 -p WCETT -e 284 -c 2 -a 0 -i 0 -k RTR
r -t 1.021658336 -s 1 -d -1 -p WCETT -e 284 -c 2 -a 0 -i 0 -k RTR
r -t 1.024901459 -s 4 -d -1 -p WCETT -e 284 -c 2 -a 0 -i 0 -k RTR
r -t 1.024901459 -s 6 -d -1 -p WCETT -e 284 -c 2 -a 0 -i 0 -k RTR
r -t 1.024901459 -s 8 -d -1 -p WCETT -e 284 -c 2 -a 0 -i 0 -k RTR
+ -t 2.000000000 -s 0 -d -1 -p WCETT -e 284 -c 2 -a 0 -i 0 -k RTR 
- -t 2.000000000 -s 0 -d -1 -p WCETT -e 284 -c 2 -a 0 -i 0 -k RTR
h -t 2.000000000 -s 0 -d -1 -p WCETT -e 284 -c 2 -a 0 -i 0 -k RTR
+ -t 2.000000000 -s 1 -d -1 -p WCETT -e 284 -c 2 -a 0 -i 0 -k RTR 
- -t 2.000000000 -s 1 -d -1 -p WCETT -e 284 -c 2 -a 0 -i 0 -k RTR
h -t 2.000000000 -s 1 -d -1 -p WCETT -e 284 -c 2 -a 0 -i 0 -k RTR
+ -t 2.000000000 -s 2 -d -1 -p WCETT -e 284 -c 2 -a 0 -i 0 -k RTR 
- -t 2.000000000 -s 2 -d -1 -p WCETT -e 284 -c 2 -a 0 -i 0 -k RTR
h -t 2.000000000 -s 2 -d -1 -p WCETT -e 284 -c 2 -a 0 -i 0 -k RTR
+ -t 2.000000000 -s 3 -d -1 -p WCETT -e 284 -c 2 -a 0 -i 0 -k RTR 
- -t 2.000000000 -s 3 -d -1 -p WCETT -e 284 -c 2 -a 0 -i 0 -k RTR
h -t 2.000000000 -s 3 -d -1 -p WCETT -e 284 -c 2 -a 0 -i 0 -k RTR
+ -t 2.000000000 -s 4 -d -1 -p WCETT -e 284 -c 2 -a 0 -i 0 -k RTR 
- -t 2.000000000 -s 4 -d -1 -p WCETT -e 284 -c 2 -a 0 -i 0 -k RTR
h -t 2.000000000 -s 4 -d -1 -p WCETT -e 284 -c 2 -a 0 -i 0 -k RTR
+ -t 2.000000000 -s 5 -d -1 -p WCETT -e 284 -c 2 -a 0 -i 0 -k RTR 
- -t 2.000000000 -s 5 -d -1 -p WCETT -e 284 -c 2 -a 0 -i 0 -k RTR
h -t 2.000000000 -s 5 -d -1 -p WCETT -e 284 -c 2 -a 0 -i 0 -k RTR
+ -t 2.000000000 -s 6 -d -1 -p WCETT -e 284 -c 2 -a 0 -i 0 -k RTR 
- -t 2.000000000 -s 6 -d -1 -p WCETT -e 284 -c 2 -a 0 -i 0 -k RTR
h -t 2.000000000 -s 6 -d -1 -p WCETT -e 284 -c 2 -a 0 -i 0 -k RTR
+ -t 2.000000000 -s 7 -d -1 -p WCETT -e 284 -c 2 -a 0 -i 0 -k RTR 
- -t 2.000000000 -s 7 -d -1 -p WCETT -e 284 -c 2 -a 0 -i 0 -k RTR
h -t 2.000000000 -s 7 -d -1 -p WCETT -e 284 -c 2 -a 0 -i 0 -k RTR
+ -t 2.000000000 -s 8 -d -1 -p WCETT -e 284 -c 2 -a 0 -i 0 -k RTR 
- -t 2.000000000 -s 8 -d -1 -p WCETT -e 284 -c 2 -a 0 -i 0 -k RTR
h -t 2.000000000 -s 8 -d -1 -p WCETT -e 284 -c 2 -a 0 -i 0 -k RTR
+ -t 2.000000000 -s 9 -d -1 -p WCETT -e 284 -c 2 -a 0 -i 0 -k RTR 
- -t 2.000000000 -s 9 -d -1 -p WCETT -e 284 -c 2 -a 0 -i 0 -k RTR
h -t 2.000000000 -s 9 -d -1 -p WCETT -e 284 -c 2 -a 0 -i 0 -k RTR
r -t 2.002848667 -s 0 -d -1 -p WCETT -e 284 -c 2 -a 0 -i 0 -k RTR
r -t 2.002848667 -s 6 -d -1 -p WCETT -e 284 -c 2 -a 0 -i 0 -k RTR
r -t 2.002848667 -s 4 -d -1 -p WCETT -e 284 -c 2 -a 0 -i 0 -k RTR
r -t 2.005647333 -s 1 -d -1 -p WCETT -e 284 -c 2 -a 0 -i 0 -k RTR
r -t 2.005647333 -s 3 -d -1 -p WCETT -e 284 -c 2 -a 0 -i 0 -k RTR
r -t 2.005647333 -s 7 -d -1 -p WCETT -e 284 -c 2 -a 0 -i 0 -k RTR
r -t 2.005647333 -s 5 -d -1 -p WCETT -e 284 -c 2 -a 0 -i 0 -k RTR
r -t 2.005647412 -s 9 -d -1 -p WCETT -e 284 -c 2 -a 0 -i 0 -k RTR
r -t 2.008526000 -s 0 -d -1 -p WCETT -e 284 -c 2 -a 0 -i 0 -k RTR
r -t 2.008526000 -s 4 -d -1 -p WCETT -e 284 -c 2 -a 0 -i 0 -k RTR
r -t 2.008526000 -s 2 -d -1 -p WCETT -e 284 -c 2 -a 0 -i 0 -k RTR
r -t 2.008526079 -s 9 -d -1 -p WCETT -e 284 -c 2 -a 0 -i 0 -k RTR
r -t 2.011344412 -s 5 -d -1 -p WCETT -e 284 -c 2 -a 0 -i 0 -k RTR
r -t 2.011344412 -s 2 -d -1 -p WCETT -e 284 -c 2 -a 0 -i 0 -k RTR
r -t 2.011344824 -s 4 -d -1 -p WCETT -e 284 -c 2 -a 0 -i 0 -k RTR
r -t 2.011344824 -s 1 -d -1 -p WCETT -e 284 -c 2 -a 0 -i 0 -k RTR
r -t 2.014222745 -s 9 -d -1 -p WCETT -e 284 -c 2 -a 0 -i 0 -k RTR
r -t 2.014223079 -s 2 -d -1 -p WCETT -e 284 -c 2 -a 0 -i 0 -k RTR
r -t 2.014223079 -s 4 -d -1 -p WCETT -e 284 -c 2 -a 0 -i 0 -k RTR
r -t 2.014223079 -s 8 -d -1 -p WCETT -e 284 -c 2 -a 0 -i 0 -k RTR
r -t 2.017081745 -s 5 -d -1 -p WCETT -e 284 -c 2 -a 0 -i 0 -k RTR
r -t 2.017081745 -s 7 -d -1 -p WCETT -e 284 -c 2 -a 0 -i 0 -k RTR
r -t 2.020530060 -s 4 -d -1 -p WCETT -e 284 -c 2 -a 0 -i 0 -k RTR
r -t 2.020530060 -s 6 -d -1 -p WCETT -e 284 -c 2 -a 0 -i 0 -k RTR
r -t 2.020530060 -s 8 -d -1 -p WCETT -e 284 -c 2 -a 0 -i 0 -k RTR
r -t 2.023568727 -s 3 -d -1 -p WCETT -e 284 -c 2 -a 0 -i 0 -k RTR
r -t 2.023568727 -s 7 -d -1 -p WCETT -e 284 -c 2 -a 0 -i 0 -k RTR
+ -t 3.000000000 -s 0 -d -1 -p WCETT -e 284 -c 2 -a 0 -i 0 -k RTR 
- -t 3.000000000 -s 0 -d -1 -p WCETT -e 284 -c 2 -a 0 -i 0 -k RTR
h -t 3.000000000 -s 0 -d -1 -p WCETT -e 284 -c 2 -a 0 -i 0 -k RTR
+ -t 3.000000000 -s 1 -d -1 -p WCETT -e 284 -c 2 -a 0 -i 0 -k RTR 
- -t 3.000000000 -s 1 -d -1 -p WCETT -e 284 -c 2 -a 0 -i 0 -k RTR
h -t 3.000000000 -s 1 -d -1 -p WCETT -e 284 -c 2 -a 0 -i 0 -k RTR
+ -t 3.000000000 -s 2 -d -1 -p WCETT -e 284 -c 2 -a 0 -i 0 -k RTR 
- -t 3.000000000 -s 2 -d -1 -p WCETT -e 284 -c 2 -a 0 -i 0 -k RTR
h -t 3.000000000 -s 2 -d -1 -p WCETT -e 284 -c 2 -a 0 -i 0 -k RTR
+ -t 3.000000000 -s 3 -d -1 -p WCETT -e 284 -c 2 -a 0 -i 0 -k RTR 
- -t 3.000000000 -s 3 -d -1 -p WCETT -e 284 -c 2 -a 0 -i 0 -k RTR
h -t 3.000000000 -s 3 -d -1 -p WCETT -e 284 -c 2 -a 0 -i 0 -k RTR
+ -t 3.000000000 -s 4 -d -1 -p WCETT -e 284 -c 2 -a 0 -i 0 -k RTR 
- -t 3.000000000 -s 4 -d -1 -p WCETT -e 284 -c 2 -a 0 -i 0 -k RTR
h -t 3.000000000 -s 4 -d -1 -p WCETT -e 284 -c 2 -a 0 -i 0 -k RTR
+ -t 3.000000000 -s 5 -d -1 -p WCETT -e 284 -c 2 -a 0 -i 0 -k RTR 
- -t 3.000000000 -s 5 -d -1 -p WCETT -e 284 -c 2 -a 0 -i 0 -k RTR
h -t 3.000000000 -s 5 -d -1 -p WCETT -e 284 -c 2 -a 0 -i 0 -k RTR
+ -t 3.000000000 -s 6 -d -1 -p WCETT -e 284 -c 2 -a 0 -i 0 -k RTR 
- -t 3.000000000 -s 6 -d -1 -p WCETT -e 284 -c 2 -a 0 -i 0 -k RTR
h -t 3.000000000 -s 6 -d -1 -p WCETT -e 284 -c 2 -a 0 -i 0 -k RTR
+ -t 3.000000000 -s 7 -d -1 -p WCETT -e 284 -c 2 -a 0 -i 0 -k RTR 
- -t 3.000000000 -s 7 -d -1 -p WCETT -e 284 -c 2 -a 0 -i 0 -k RTR
h -t 3.000000000 -s 7 -d -1 -p WCETT -e 284 -c 2 -a 0 -i 0 -k RTR
+ -t 3.000000000 -s 8 -d -1 -p WCETT -e 284 -c 2 -a 0 -i 0 -k RTR 
- -t 3.000000000 -s 8 -d -1 -p WCETT -e 284 -c 2 -a 0 -i 0 -k RTR
h -t 3.000000000 -s 8 -d -1 -p WCETT -e 284 -c 2 -a 0 -i 0 -k RTR
+ -t 3.000000000 -s 9 -d -1 -p WCETT -e 284 -c 2 -a 0 -i 0 -k RTR 
- -t 3.000000000 -s 9 -d -1 -p WCETT -e 284 -c 2 -a 0 -i 0 -k RTR
h -t 3.000000000 -s 9 -d -1 -p WCETT -e 284 -c 2 -a 0 -i 0 -k RTR
r -t 3.002808333 -s 9 -d -1 -p WCETT -e 284 -c 2 -a 0 -i 0 -k RTR
r -t 3.002808667 -s 1 -d -1 -p WCETT -e 284 -c 2 -a 0 -i 0 -k RTR
r -t 3.002808667 -s 5 -d -1 -p WCETT -e 284 -c 2 -a 0 -i 0 -k RTR
r -t 3.006211333 -s 4 -d -1 -p WCETT -e 284 -c 2 -a 0 -i 0 -k RTR
r -t 3.006211333 -s 6 -d -1 -p WCETT -e 284 -c 2 -a 0 -i 0 -k RTR
r -t 3.006211333 -s 8 -d -1 -p WCETT -e 284 -c 2 -a 0 -i 0 -k RTR
r -t 3.009150000 -s 1 -d -1 -p WCETT -e 284 -c 2 -a 0 -i 0 -k RTR
r -t 3.009150000 -s 3 -d -1 -p WCETT -e 284 -c 2 -a 0 -i 0 -k RTR
r -t 3.009150000 -s 7 -d -1 -p WCETT -e 284 -c 2 -a 0 -i 0 -k RTR
r -t 3.009150000 -s 5 -d -1 -p WCETT -e 284 -c 2 -a 0 -i 0 -k RTR
r -t 3.009150079 -s 9 -d -1 -p WCETT -e 284 -c 2 -a 0 -i 0 -k RTR
r -t 3.011968333 -s 9 -d -1 -p WCETT -e 284 -c 2 -a 0 -i 0 -k RTR
r -t 3.011968412 -s 5 -d -1 -p WCETT -e 284 -c 2 -a 0 -i 0 -k RTR
r -t 3.011968412 -s 2 -d -1 -p WCETT -e 284 -c 2 -a 0 -i 0 -k RTR
r -t 3.015231609 -s 0 -d -1 -p WCETT -e 284 -c 2 -a 0 -i 0 -k RTR
r -t 3.015231609 -s 4 -d -1 -p WCETT -e 284 -c 2 -a 0 -i 0 -k RTR
r -t 3.015231609 -s 2 -d -1 -p WCETT -e 284 -c 2 -a 0 -i 0 -k RTR
r -t 3.015231688 -s 9 -d -1 -p WCETT -e 284 -c 2 -a 0 -i 0 -k RTR
r -t 3.018070276 -s 3 -d -1 -p WCETT -e 284 -c 2 -a 0 -i 0 -k RTR
r -t 3.018070276 -s 1 -d -1 -p WCETT -e 284 -c 2 -a 0 -i 0 -k RTR
r -t 3.021698591 -s 0 -d -1 -p WCETT -e 284 -c 2 -a 0 -i 0 -k RTR
r -t 3.021698591 -s 6 -d -1 -p WCETT -e 284 -c 2 -a 0 -i 0 -k RTR
r -t 3.021698591 -s 4 -d -1 -p WCETT -e 284 -c 2 -a 0 -i 0 -k RTR
+ -t 4.000000000 -s 0 -d -1 -p WCETT -e 284 -c 2 -a 0 -i 0 -k RTR 
- -t 4.000000000 -s 0 -d -1 -p WCETT -e 284 -c 2 -a 0 -i 0 -k RTR
h -t 4.000000000 -s 0 -d -1 -p WCETT -e 284 -c 2 -a 0 -i 0 -k RTR
+ -t 4.000000000 -s 1 -d -1 -p WCETT -e 284 -c 2 -a 0 -i 0 -k RTR 
- -t 4.000000000 -s 1 -d -1 -p WCETT -e 284 -c 2 -a 0 -i 0 -k RTR
h -t 4.000000000 -s 1 -d -1 -p WCETT -e 284 -c 2 -a 0 -i 0 -k RTR
+ -t 4.000000000 -s 2 -d -1 -p WCETT -e 284 -c 2 -a 0 -i 0 -k RTR 
- -t 4.000000000 -s 2 -d -1 -p WCETT -e 284 -c 2 -a 0 -i 0 -k RTR
h -t 4.000000000 -s 2 -d -1 -p WCETT -e 284 -c 2 -a 0 -i 0 -k RTR
+ -t 4.000000000 -s 3 -d -1 -p WCETT -e 284 -c 2 -a 0 -i 0 -k RTR 
- -t 4.000000000 -s 3 -d -1 -p WCETT -e 284 -c 2 -a 0 -i 0 -k RTR
h -t 4.000000000 -s 3 -d -1 -p WCETT -e 284 -c 2 -a 0 -i 0 -k RTR
+ -t 4.000000000 -s 4 -d -1 -p WCETT -e 284 -c 2 -a 0 -i 0 -k RTR 
- -t 4.000000000 -s 4 -d -1 -p WCETT -e 284 -c 2 -a 0 -i 0 -k RTR
h -t 4.000000000 -s 4 -d -1 -p WCETT -e 284 -c 2 -a 0 -i 0 -k RTR
+ -t 4.000000000 -s 5 -d -1 -p WCETT -e 284 -c 2 -a 0 -i 0 -k RTR 
- -t 4.000000000 -s 5 -d -1 -p WCETT -e 284 -c 2 -a 0 -i 0 -k RTR
h -t 4.000000000 -s 5 -d -1 -p WCETT -e 284 -c 2 -a 0 -i 0 -k RTR
+ -t 4.000000000 -s 6 -d -1 -p WCETT -e 284 -c 2 -a 0 -i 0 -k RTR 
- -t 4.000000000 -s 6 -d -1 -p WCETT -e 284 -c 2 -a 0 -i 0 -k RTR
h -t 4.000000000 -s 6 -d -1 -p WCETT -e 284 -c 2 -a 0 -i 0 -k RTR
+ -t 4.000000000 -s 7 -d -1 -p WCETT -e 284 -c 2 -a 0 -i 0 -k RTR 
- -t 4.000000000 -s 7 -d -1 -p WCETT -e 284 -c 2 -a 0 -i 0 -k RTR
h -t 4.000000000 -s 7 -d -1 -p WCETT -e 284 -c 2 -a 0 -i 0 -k RTR
+ -t 4.000000000 -s 8 -d -1 -p WCETT -e 284 -c 2 -a 0 -i 0 -k RTR 
- -t 4.000000000 -s 8 -d -1 -p WCETT -e 284 -c 2 -a 0 -i 0 -k RTR
h -t 4.000000000 -s 8 -d -1 -p WCETT -e 284 -c 2 -a 0 -i 0 -k RTR
+ -t 4.000000000 -s 9 -d -1 -p WCETT -e 284 -c 2 -a 0 -i 0 -k RTR 
- -t 4.000000000 -s 9 -d -1 -p WCETT -e 284 -c 2 -a 0 -i 0 -k RTR
h -t 4.000000000 -s 9 -d -1 -p WCETT -e 284 -c 2 -a 0 -i 0 -k RTR
r -t 4.002828333 -s 5 -d -1 -p WCETT -e 284 -c 2 -a 0 -i 0 -k RTR
r -t 4.002828333 -s 2 -d -1 -p WCETT -e 284 -c 2 -a 0 -i 0 -k RTR
r -t 4.002828745 -s 4 -d -1 -p WCETT -e 284 -c 2 -a 0 -i 0 -k RTR
r -t 4.002828745 -s 1 -d -1 -p WCETT -e 284 -c 2 -a 0 -i 0 -k RTR
r -t 4.005647412 -s 0 -d -1 -p WCETT -e 284 -c 2 -a 0 -i 0 -k RTR
r -t 4.005647412 -s 4 -d -1 -p WCETT -e 284 -c 2 -a 0 -i 0 -k RTR
r -t 4.005647412 -s 2 -d -1 -p WCETT -e 284 -c 2 -a 0 -i 0 -k RTR
r -t 4.005647491 -s 9 -d -1 -p WCETT -e 284 -c 2 -a 0 -i 0 -k RTR
r -t 4.008806079 -s 1 -d -1 -p WCETT -e 284 -c 2 -a 0 -i 0 -k RTR
r -t 4.008806079 -s 3 -d -1 -p WCETT -e 284 -c 2 -a 0 -i 0 -k RTR
r -t 4.008806079 -s 7 -d -1 -p WCETT -e 284 -c 2 -a 0 -i 0 -k RTR
r -t 4.008806079 -s 5 -d -1 -p WCETT -e 284 -c 2 -a 0 -i 0 -k RTR
r -t 4.008806157 -s 9 -d -1 -p WCETT -e 284 -c 2 -a 0 -i 0 -k RTR
r -t 4.011684412 -s 9 -d -1 -p WCETT -e 284 -c 2 -a 0 -i 0 -k RTR
r -t 4.011684745 -s 2 -d -1 -p WCETT -e 284 -c 2 -a 0 -i 0 -k RTR
r -t 4.011684745 -s 4 -d -1 -p WCETT -e 284 -c 2 -a 0 -i 0 -k RTR
r -t 4.011684745 -s 8 -d -1 -p WCETT -e 284 -c 2 -a 0 -i 0 -k RTR
r -t 4.014483079 -s 9 -d -1 -p WCETT -e 284 -c 2 -a 0 -i 0 -k RTR
r -t 4.014483412 -s 1 -d -1 -p WCETT -e 284 -c 2 -a 0 -i 0 -k RTR
r -t 4.014483412 -s 5 -d -1 -p WCETT -e 284 -c 2 -a 0 -i 0 -k RTR
r -t 4.018190903 -s 4 -d -1 -p WCETT -e 284 -c 2 -a 0 -i 0 -k RTR
r -t 4.018190903 -s 6 -d -1 -p WCETT -e 284 -c 2 -a 0 -i 0 -k RTR
r -t 4.018190903 -s 8 -d -1 -p WCETT -e 284 -c 2 -a 0 -i 0 -k RTR
r -t 4.021049569 -s 5 -d -1 -p WCETT -e 284 -c 2 -a 0 -i 0 -k RTR
r -t 4.021049569 -s 7 -d -1 -p WCETT -e 284 -c 2 -a 0 -i 0 -k RTR
r -t 4.024577060 -s 0 -d -1 -p WCETT -e 284 -c 2 -a 0 -i 0 -k RTR
r -t 4.024577060 -s 6 -d -1 -p WCETT -e 284 -c 2 -a 0 -i 0 -k RTR
r -t 4.024577060 -s 4 -d -1 -p WCETT -e 284 -c 2 -a 0 -i 0 -k RTR
+ -t 5.000000000 -s 0 -d -1 -p WCETT -e 284 -c 2 -a 0 -i 0 -k RTR 
- -t 5.000000000 -s 0 -d -1 -p WCETT -e 284 -c 2 -a 0 -i 0 -k RTR
h -t 5.000000000 -s 0 -d -1 -p WCETT -e 284 -c 2 -a 0 -i 0 -k RTR
+ -t 5.000000000 -s 1 -d -1 -p WCETT -e 284 -c 2 -a 0 -i 0 -k RTR 
- -t 5.000000000 -s 1 -d -1 -p WCETT -e 284 -c 2 -a 0 -i 0 -k RTR
h -t 5.000000000 -s 1 -d -1 -p WCETT -e 284 -c 2 -a 0 -i 0 -k RTR
+ -t 5.000000000 -s 2 -d -1 -p WCETT -e 284 -c 2 -a 0 -i 0 -k RTR 
- -t 5.000000000 -s 2 -d -1 -p WCETT -e 284 -c 2 -a 0 -i 0 -k RTR
h -t 5.000000000 -s 2 -d -1 -p WCETT -e 284 -c 2 -a 0 -i 0 -k RTR
+ -t 5.000000000 -s 3 -d -1 -p WCETT -e 284 -c 2 -a 0 -i 0 -k RTR 
- -t 5.000000000 -s 3 -d -1 -p WCETT -e 284 -c 2 -a 0 -i 0 -k RTR
h -t 5.000000000 -s 3 -d -1 -p WCETT -e 284 -c 2 -a 0 -i 0 -k RTR
+ -t 5.000000000 -s 4 -d -1 -p WCETT -e 284 -c 2 -a 0 -i 0 -k RTR 
- -t 5.000000000 -s 4 -d -1 -p WCETT -e 284 -c 2 -a 0 -i 0 -k RTR
h -t 5.000000000 -s 4 -d -1 -p WCETT -e 284 -c 2 -a 0 -i 0 -k RTR
+ -t 5.000000000 -s 5 -d -1 -p WCETT -e 284 -c 2 -a 0 -i 0 -k RTR 
- -t 5.000000000 -s 5 -d -1 -p WCETT -e 284 -c 2 -a 0 -i 0 -k RTR
h -t 5.000000000 -s 5 -d -1 -p WCETT -e 284 -c 2 -a 0 -i 0 -k RTR
+ -t 5.000000000 -s 6 -d -1 -p WCETT -e 284 -c 2 -a 0 -i 0 -k RTR 
- -t 5.000000000 -s 6 -d -1 -p WCETT -e 284 -c 2 -a 0 -i 0 -k RTR
h -t 5.000000000 -s 6 -d -1 -p WCETT -e 284 -c 2 -a 0 -i 0 -k RTR
+ -t 5.000000000 -s 7 -d -1 -p WCETT -e 284 -c 2 -a 0 -i 0 -k RTR 
- -t 5.000000000 -s 7 -d -1 -p WCETT -e 284 -c 2 -a 0 -i 0 -k RTR
h -t 5.000000000 -s 7 -d -1 -p WCETT -e 284 -c 2 -a 0 -i 0 -k RTR
+ -t 5.000000000 -s 8 -d -1 -p WCETT -e 284 -c 2 -a 0 -i 0 -k RTR 
- -t 5.000000000 -s 8 -d -1 -p WCETT -e 284 -c 2 -a 0 -i 0 -k RTR
h -t 5.000000000 -s 8 -d -1 -p WCETT -e 284 -c 2 -a 0 -i 0 -k RTR
+ -t 5.000000000 -s 9 -d -1 -p WCETT -e 284 -c 2 -a 0 -i 0 -k RTR 
- -t 5.000000000 -s 9 -d -1 -p WCETT -e 284 -c 2 -a 0 -i 0 -k RTR
h -t 5.000000000 -s 9 -d -1 -p WCETT -e 284 -c 2 -a 0 -i 0 -k RTR
r -t 5.002808667 -s 4 -d -1 -p WCETT -e 284 -c 2 -a 0 -i 0 -k RTR
r -t 5.002808667 -s 6 -d -1 -p WCETT -e 284 -c 2 -a 0 -i 0 -k RTR
r -t 5.002808667 -s 8 -d -1 -p WCETT -e 284 -c 2 -a 0 -i 0 -k RTR
r -t 5.005687333 -s 3 -d -1 -p WCETT -e 284 -c 2 -a 0 -i 0 -k RTR
r -t 5.005687333 -s 7 -d -1 -p WCETT -e 284 -c 2 -a 0 -i 0 -k RTR
r -t 5.009394157 -s 5 -d -1 -p WCETT -e 284 -c 2 -a 0 -i 0 -k RTR
r -t 5.009394157 -s 2 -d -1 -p WCETT -e 284 -c 2 -a 0 -i 0 -k RTR
r -t 5.009394569 -s 4 -d -1 -p WCETT -e 284 -c 2 -a 0 -i 0 -k RTR
r -t 5.009394569 -s 1 -d -1 -p WCETT -e 284 -c 2 -a 0 -i 0 -k RTR
r -t 5.012352491 -s 9 -d -1 -p WCETT -e 284 -c 2 -a 0 -i 0 -k RTR
r -t 5.012352824 -s 2 -d -1 -p WCETT -e 284 -c 2 -a 0 -i 0 -k RTR
r -t 5.012352824 -s 4 -d -1 -p WCETT -e 284 -c 2 -a 0 -i 0 -k RTR
r -t 5.012352824 -s 8 -d -1 -p WCETT -e 284 -c 2 -a 0 -i 0 -k RTR
r -t 5.015111491 -s 5 -d -1 -p WCETT -e 284 -c 2 -a 0 -i 0 -k RTR
r -t 5.015111491 -s 7 -d -1 -p WCETT -e 284 -c 2 -a 0 -i 0 -k RTR
r -t 5.018619258 -s 1 -d -1 -p WCETT -e 284 -c 2 -a 0 -i 0 -k RTR
r -t 5.018619258 -s 3 -d -1 -p WCETT -e 284 -c 2 -a 0 -i 0 -k RTR
r -t 5.018619258 -s 7 -d -1 -p WCETT -e 284 -c 2 -a 0 -i 0 -k RTR
r -t 5.018619258 -s 5 -d -1 -p WCETT -e 284 -c 2 -a 0 -i 0 -k RTR
r -t 5.018619336 -s 9 -d -1 -p WCETT -e 284 -c 2 -a 0 -i 0 -k RTR
r -t 5.021377924 -s 0 -d -1 -p WCETT -e 284 -c 2 -a 0 -i 0 -k RTR
r -t 5.021377924 -s 4 -d -1 -p WCETT -e 284 -c 2 -a 0 -i 0 -k RTR
r -t 5.021377924 -s 2 -d -1 -p WCETT -e 284 -c 2 -a 0 -i 0 -k RTR
r -t 5.021378003 -s 9 -d -1 -p WCETT -e 284 -c 2 -a 0 -i 0 -k RTR
r -t 5.024760867 -s 0 -d -1 -p WCETT -e 284 -c 2 -a 0 -i 0 -k RTR
r -t 5.024760867 -s 6 -d -1 -p WCETT -e 284 -c 2 -a 0 -i 0 -k RTR
r -t 5.024760867 -s 4 -d -1 -p WCETT -e 284 -c 2 -a 0 -i 0 -k RTR
+ -t 6.000000000 -s 0 -d -1 -p WCETT -e 284 -c 2 -a 0 -i 0 -k RTR 
- -t 6.000000000 -s 0 -d -1 -p WCETT -e 284 -c 2 -a 0 -i 0 -k RTR
h -t 6.000000000 -s 0 -d -1 -p WCETT -e 284 -c 2 -a 0 -i 0 -k RTR
+ -t 6.000000000 -s 1 -d -1 -p WCETT -e 284 -c 2 -a 0 -i 0 -k RTR 
- -t 6.000000000 -s 1 -d -1 -p WCETT -e 284 -c 2 -a 0 -i 0 -k RTR
h -t 6.000000000 -s 1 -d -1 -p WCETT -e 284 -c 2 -a 0 -i 0 -k RTR
+ -t 6.000000000 -s 2 -d -1 -p WCETT -e 284 -c 2 -a 0 -i 0 -k RTR 
- -t 6.000000000 -s 2 -d -1 -p WCETT -e 284 -c 2 -a 0 -i 0 -k RTR
h -t 6.000000000 -s 2 -d -1 -p WCETT -e 284 -c 2 -a 0 -i 0 -k RTR
+ -t 6.000000000 -s 3 -d -1 -p WCETT -e 284 -c 2 -a 0 -i 0 -k RTR 
- -t 6.000000000 -s 3 -d -1 -p WCETT -e 284 -c 2 -a 0 -i 0 -k RTR
h -t 6.000000000 -s 3 -d -1 -p WCETT -e 284 -c 2 -a 0 -i 0 -k RTR
+ -t 6.000000000 -s 4 -d -1 -p WCETT -e 284 -c 2 -a 0 -i 0 -k RTR 
- -t 6.000000000 -s 4 -d -1 -p WCETT -e 284 -c 2 -a 0 -i 0 -k RTR
h -t 6.000000000 -s 4 -d -1 -p WCETT -e 284 -c 2 -a 0 -i 0 -k RTR
+ -t 6.000000000 -s 5 -d -1 -p WCETT -e 284 -c 2 -a 0 -i 0 -k RTR 
- -t 6.000000000 -s 5 -d -1 -p WCETT -e 284 -c 2 -a 0 -i 0 -k RTR
h -t 6.000000000 -s 5 -d -1 -p WCETT -e 284 -c 2 -a 0 -i 0 -k RTR
+ -t 6.000000000 -s 6 -d -1 -p WCETT -e 284 -c 2 -a 0 -i 0 -k RTR 
- -t 6.000000000 -s 6 -d -1 -p WCETT -e 284 -c 2 -a 0 -i 0 -k RTR
h -t 6.000000000 -s 6 -d -1 -p WCETT -e 284 -c 2 -a 0 -i 0 -k RTR
+ -t 6.000000000 -s 7 -d -1 -p WCETT -e 284 -c 2 -a 0 -i 0 -k RTR 
- -t 6.000000000 -s 7 -d -1 -p WCETT -e 284 -c 2 -a 0 -i 0 -k RTR
h -t 6.000000000 -s 7 -d -1 -p WCETT -e 284 -c 2 -a 0 -i 0 -k RTR
+ -t 6.000000000 -s 8 -d -1 -p WCETT -e 284 -c 2 -a 0 -i 0 -k RTR 
- -t 6.000000000 -s 8 -d -1 -p WCETT -e 284 -c 2 -a 0 -i 0 -k RTR
h -t 6.000000000 -s 8 -d -1 -p WCETT -e 284 -c 2 -a 0 -i 0 -k RTR
+ -t 6.000000000 -s 9 -d -1 -p WCETT -e 284 -c 2 -a 0 -i 0 -k RTR 
- -t 6.000000000 -s 9 -d -1 -p WCETT -e 284 -c 2 -a 0 -i 0 -k RTR
h -t 6.000000000 -s 9 -d -1 -p WCETT -e 284 -c 2 -a 0 -i 0 -k RTR
r -t 6.002808667 -s 3 -d -1 -p WCETT -e 284 -c 2 -a 0 -i 0 -k RTR
r -t 6.002808667 -s 1 -d -1 -p WCETT -e 284 -c 2 -a 0 -i 0 -k RTR
r -t 6.006191333 -s 5 -d -1 -p WCETT -e 284 -c 2 -a 0 -i 0 -k RTR
r -t 6.006191333 -s 2 -d -1 -p WCETT -e 284 -c 2 -a 0 -i 0 -k RTR
r -t 6.006191745 -s 4 -d -1 -p WCETT -e 284 -c 2 -a 0 -i 0 -k RTR
r -t 6.006191745 -s 1 -d -1 -p WCETT -e 284 -c 2 -a 0 -i 0 -k RTR
r -t 6.009109667 -s 9 -d -1 -p WCETT -e 284 -c 2 -a 0 -i 0 -k RTR
r -t 6.009110000 -s 2 -d -1 -p WCETT -e 284 -c 2 -a 0 -i 0 -k RTR
r -t 6.009110000 -s 4 -d -1 -p WCETT -e 284 -c 2 -a 0 -i 0 -k RTR
r -t 6.009110000 -s 8 -d -1 -p WCETT -e 284 -c 2 -a 0 -i 0 -k RTR
r -t 6.011988333 -s 9 -d -1 -p WCETT -e 284 -c 2 -a 0 -i 0 -k RTR
r -t 6.011988667 -s 1 -d -1 -p WCETT -e 284 -c 2 -a 0 -i 0 -k RTR
r -t 6.011988667 -s 5 -d -1 -p WCETT -e 284 -c 2 -a 0 -i 0 -k RTR
r -t 6.015376434 -s 1 -d -1 -p WCETT -e 284 -c 2 -a 0 -i 0 -k RTR
r -t 6.015376434 -s 3 -d -1 -p WCETT -e 284 -c 2 -a 0 -i 0 -k RTR
r -t 6.015376434 -s 7 -d -1 -p WCETT -e 284 -c 2 -a 0 -i 0 -k RTR
r -t 6.015376434 -s 5 -d -1 -p WCETT -e 284 -c 2 -a 0 -i 0 -k RTR
r -t 6.015376512 -s 9 -d -1 -p WCETT -e 284 -c 2 -a 0 -i 0 -k RTR
r -t 6.018155100 -s 0 -d -1 -p WCETT -e 284 -c 2 -a 0 -i 0 -k RTR
r -t 6.018155100 -s 4 -d -1 -p WCETT -e 284 -c 2 -a 0 -i 0 -k RTR
r -t 6.018155100 -s 2 -d -1 -p WCETT -e 284 -c 2 -a 0 -i 0 -k RTR
r -t 6.018155179 -s 9 -d -1 -p WCETT -e 284 -c 2 -a 0 -i 0 -k RTR
r -t 6.021438043 -s 0 -d -1 -p WCETT -e 284 -c 2 -a 0 -i 0 -k RTR
r -t 6.021438043 -s 6 -d -1 -p WCETT -e 284 -c 2 -a 0 -i 0 -k RTR
r -t 6.021438043 -s 4 -d -1 -p WCETT -e 284 -c 2 -a 0 -i 0 -k RTR
r -t 6.024700986 -s 4 -d -1 -p WCETT -e 284 -c 2 -a 0 -i 0 -k RTR
r -t 6.024700986 -s 6 -d -1 -p WCETT -e 284 -c 2 -a 0 -i 0 -k RTR
r -t 6.024700986 -s 8 -d -1 -p WCETT -e 284 -c 2 -a 0 -i 0 -k RTR
+ -t 7.000000000 -s 0 -d -1 -p WCETT -e 284 -c 2 -a 0 -i 0 -k RTR 
- -t 7.000000000 -s 0 -d -1 -p WCETT -e 284 -c 2 -a 0 -i 0 -k RTR
h -t 7.000000000 -s 0 -d -1 -p WCETT -e 284 -c 2 -a 0 -i 0 -k RTR
+ -t 7.000000000 -s 1 -d -1 -p WCETT -e 284 -c 2 -a 0 -i 0 -k RTR 
- -t 7.000000000 -s 1 -d -1 -p WCETT -e 284 -c 2 -a 0 -i 0 -k RTR
h -t 7.000000000 -s 1 -d -1 -p WCETT -e 284 -c 2 -a 0 -i 0 -k RTR
+ -t 7.000000000 -s 2 -d -1 -p WCETT -e 284 -c 2 -a 0 -i 0 -k RTR 
- -t 7.000000000 -s 2 -d -1 -p WCETT -e 284 -c 2 -a 0 -i 0 -k RTR
h -t 7.000000000 -s 2 -d -1 -p WCETT -e 284 -c 2 -a 0 -i 0 -k RTR
+ -t 7.000000000 -s 3 -d -1 -p WCETT -e 284 -c 2 -a 0 -i 0 -k RTR 
- -t 7.000000000 -s 3 -d -1 -p WCETT -e 284 -c 2 -a 0 -i 0 -k RTR
h -t 7.000000000 -s 3 -d -1 -p WCETT -e 284 -c 2 -a 0 -i 0 -k RTR
+ -t 7.000000000 -s 4 -d -1 -p WCETT -e 284 -c 2 -a 0 -i 0 -k RTR 
- -t 7.000000000 -s 4 -d -1 -p WCETT -e 284 -c 2 -a 0 -i 0 -k RTR
h -t 7.000000000 -s 4 -d -1 -p WCETT -e 284 -c 2 -a 0 -i 0 -k RTR
+ -t 7.000000000 -s 5 -d -1 -p WCETT -e 284 -c 2 -a 0 -i 0 -k RTR 
- -t 7.000000000 -s 5 -d -1 -p WCETT -e 284 -c 2 -a 0 -i 0 -k RTR
h -t 7.000000000 -s 5 -d -1 -p WCETT -e 284 -c 2 -a 0 -i 0 -k RTR
+ -t 7.000000000 -s 6 -d -1 -p WCETT -e 284 -c 2 -a 0 -i 0 -k RTR 
- -t 7.000000000 -s 6 -d -1 -p WCETT -e 284 -c 2 -a 0 -i 0 -k RTR
h -t 7.000000000 -s 6 -d -1 -p WCETT -e 284 -c 2 -a 0 -i 0 -k RTR
+ -t 7.000000000 -s 7 -d -1 -p WCETT -e 284 -c 2 -a 0 -i 0 -k RTR 
- -t 7.000000000 -s 7 -d -1 -p WCETT -e 284 -c 2 -a 0 -i 0 -k RTR
h -t 7.000000000 -s 7 -d -1 -p WCETT -e 284 -c 2 -a 0 -i 0 -k RTR
+ -t 7.000000000 -s 8 -d -1 -p WCETT -e 284 -c 2 -a 0 -i 0 -k RTR 
- -t 7.000000000 -s 8 -d -1 -p WCETT -e 284 -c 2 -a 0 -i 0 -k RTR
h -t 7.000000000 -s 8 -d -1 -p WCETT -e 284 -c 2 -a 0 -i 0 -k RTR
+ -t 7.000000000 -s 9 -d -1 -p WCETT -e 284 -c 2 -a 0 -i 0 -k RTR 
- -t 7.000000000 -s 9 -d -1 -p WCETT -e 284 -c 2 -a 0 -i 0 -k RTR
h -t 7.000000000 -s 9 -d -1 -p WCETT -e 284 -c 2 -a 0 -i 0 -k RTR
r -t 7.002788333 -s 9 -d -1 -p WCETT -e 284 -c 2 -a 0 -i 0 -k RTR
r -t 7.002788333 -s 5 -d -1 -p WCETT -e 284 -c 2 -a 0 -i 0 -k RTR
r -t 7.002788333 -s 2 -d -1 -p WCETT -e 284 -c 2 -a 0 -i 0 -k RTR
r -t 7.005992041 -s 0 -d -1 -p WCETT -e 284 -c 2 -a 0 -i 0 -k RTR
r -t 7.005992041 -s 6 -d -1 -p WCETT -e 284 -c 2 -a 0 -i 0 -k RTR
r -t 7.005992041 -s 4 -d -1 -p WCETT -e 284 -c 2 -a 0 -i 0 -k RTR
r -t 7.008770708 -s 3 -d -1 -p WCETT -e 284 -c 2 -a 0 -i 0 -k RTR
r -t 7.008770708 -s 1 -d -1 -p WCETT -e 284 -c 2 -a 0 -i 0 -k RTR
r -t 7.012378475 -s 1 -d -1 -p WCETT -e 284 -c 2 -a 0 -i 0 -k RTR
r -t 7.012378475 -s 3 -d -1 -p WCETT -e 284 -c 2 -a 0 -i 0 -k RTR
r -t 7.012378475 -s 7 -d -1 -p WCETT -e 284 -c 2 -a 0 -i 0 -k RTR
r -t 7.012378475 -s 5 -d -1 -p WCETT -e 284 -c 2 -a 0 -i 0 -k RTR
r -t 7.012378553 -s 9 -d -1 -p WCETT -e 284 -c 2 -a 0 -i 0 -k RTR
r -t 7.015217141 -s 0 -d -1 -p WCETT -e 284 -c 2 -a 0 -i 0 -k RTR