Sconfig 0.00000 tap: on snoop: rts? on errs? on
Sconfig 0.00000 salvage: on !bd replies? on
Sconfig 0.00000 grat error: on grat reply: on
Sconfig 0.00000 $reply for props: on ring 0 search: on
Sconfig 0.00000 using MOBICACHE
s 15.000000000 _0_ AGT  --- 0 cbr 512 [0 0 0 0] ------- [0:0 19:0 32 0] [0] 0 0
r 15.000000000 _0_ RTR  --- 0 cbr 512 [0 0 0 0] ------- [0:0 19:0 32 0] [0] 0 0
s 15.000000000 _1_ AGT  --- 2 cbr 512 [0 0 0 0] ------- [1:0 21:0 32 0] [0] 0 0
r 15.000000000 _1_ RTR  --- 2 cbr 512 [0 0 0 0] ------- [1:0 21:0 32 0] [0] 0 0
s 15.000000000 _24_ AGT  --- 4 cbr 512 [0 0 0 0] ------- [24:0 25:0 32 0] [0] 0 0
r 15.000000000 _24_ RTR  --- 4 cbr 512 [0 0 0 0] ------- [24:0 25:0 32 0] [0] 0 0
s 15.006709405 _24_ RTR  --- 5 DSR 32 [0 0 0 0] ------- [24:255 25:255 32 0] 1 [1 1] [0 1 0 0->0] [0 0 0 0->0]
s 15.007499249 _0_ RTR  --- 1 DSR 32 [0 0 0 0] ------- [0:255 19:255 32 0] 1 [1 1] [0 1 0 0->0] [0 0 0 0->0]
r 15.007961739 _22_ RTR  --- 5 DSR 32 [0 ffffffff 18 800] ------- [24:255 25:255 32 0] 1 [1 1] [0 1 0 0->0] [0 0 0 0->0]
r 15.007961739 _7_ RTR  --- 5 DSR 32 [0 ffffffff 18 800] ------- [24:255 25:255 32 0] 1 [1 1] [0 1 0 0->0] [0 0 0 0->0]
r 15.007961739 _26_ RTR  --- 5 DSR 32 [0 ffffffff 18 800] ------- [24:255 25:255 32 0] 1 [1 1] [0 1 0 0->0] [0 0 0 0->0]
r 15.007961739 _8_ RTR  --- 5 DSR 32 [0 ffffffff 18 800] ------- [24:255 25:255 32 0] 1 [1 1] [0 1 0 0->0] [0 0 0 0->0]
r 15.007961877 _10_ RTR  --- 5 DSR 32 [0 ffffffff 18 800] ------- [24:255 25:255 32 0] 1 [1 1] [0 1 0 0->0] [0 0 0 0->0]
r 15.007961877 _4_ RTR  --- 5 DSR 32 [0 ffffffff 18 800] ------- [24:255 25:255 32 0] 1 [1 1] [0 1 0 0->0] [0 0 0 0->0]
r 15.007961877 _5_ RTR  --- 5 DSR 32 [0 ffffffff 18 800] ------- [24:255 25:255 32 0] 1 [1 1] [0 1 0 0->0] [0 0 0 0->0]
r 15.007961877 _11_ RTR  --- 5 DSR 32 [0 ffffffff 18 800] ------- [24:255 25:255 32 0] 1 [1 1] [0 1 0 0->0] [0 0 0 0->0]
r 15.007962072 _20_ RTR  --- 5 DSR 32 [0 ffffffff 18 800] ------- [24:255 25:255 32 0] 1 [1 1] [0 1 0 0->0] [0 0 0 0->0]
r 15.007962072 _25_ RTR  --- 5 DSR 32 [0 ffffffff 18 800] ------- [24:255 25:255 32 0] 1 [1 1] [0 1 0 0->0] [0 0 0 0->0]
r 15.007962151 _13_ RTR  --- 5 DSR 32 [0 ffffffff 18 800] ------- [24:255 25:255 32 0] 1 [1 1] [0 1 0 0->0] [0 0 0 0->0]
r 15.007962151 _1_ RTR  --- 5 DSR 32 [0 ffffffff 18 800] ------- [24:255 25:255 32 0] 1 [1 1] [0 1 0 0->0] [0 0 0 0->0]
r 15.007962151 _23_ RTR  --- 5 DSR 32 [0 ffffffff 18 800] ------- [24:255 25:255 32 0] 1 [1 1] [0 1 0 0->0] [0 0 0 0->0]
r 15.007962151 _2_ RTR  --- 5 DSR 32 [0 ffffffff 18 800] ------- [24:255 25:255 32 0] 1 [1 1] [0 1 0 0->0] [0 0 0 0->0]
r 15.007962151 _14_ RTR  --- 5 DSR 32 [0 ffffffff 18 800] ------- [24:255 25:255 32 0] 1 [1 1] [0 1 0 0->0] [0 0 0 0->0]
s 15.008759740 _1_ RTR  --- 3 DSR 32 [0 0 0 0] ------- [1:255 21:255 32 0] 1 [1 1] [0 1 0 0->0] [0 0 0 0->0]
r 15.009068940 _3_ RTR  --- 1 DSR 32 [0 ffffffff 0 800] ------- [0:255 19:255 32 0] 1 [1 1] [0 1 0 0->0] [0 0 0 0->0]
r 15.009069274 _6_ RTR  --- 1 DSR 32 [0 ffffffff 0 800] ------- [0:255 19:255 32 0] 1 [1 1] [0 1 0 0->0] [0 0 0 0->0]
r 15.009069274 _1_ RTR  --- 1 DSR 32 [0 ffffffff 0 800] ------- [0:255 19:255 32 0] 1 [1 1] [0 1 0 0->0] [0 0 0 0->0]
r 15.009069352 _25_ RTR  --- 1 DSR 32 [0 ffffffff 0 800] ------- [0:255 19:255 32 0] 1 [1 1] [0 1 0 0->0] [0 0 0 0->0]
r 15.009069352 _4_ RTR  --- 1 DSR 32 [0 ffffffff 0 800] ------- [0:255 19:255 32 0] 1 [1 1] [0 1 0 0->0] [0 0 0 0->0]
r 15.010311607 _4_ RTR  --- 3 DSR 32 [0 ffffffff 1 800] ------- [1:255 21:255 32 0] 1 [1 1] [0 1 0 0->0] [0 0 0 0->0]
r 15.010311745 _26_ RTR  --- 3 DSR 32 [0 ffffffff 1 800] ------- [1:255 21:255 32 0] 1 [1 1] [0 1 0 0->0] [0 0 0 0->0]
r 15.010311940 _0_ RTR  --- 3 DSR 32 [0 ffffffff 1 800] ------- [1:255 21:255 32 0] 1 [1 1] [0 1 0 0->0] [0 0 0 0->0]
r 15.010311940 _7_ RTR  --- 3 DSR 32 [0 ffffffff 1 800] ------- [1:255 21:255 32 0] 1 [1 1] [0 1 0 0->0] [0 0 0 0->0]
r 15.010311940 _2_ RTR  --- 3 DSR 32 [0 ffffffff 1 800] ------- [1:255 21:255 32 0] 1 [1 1] [0 1 0 0->0] [0 0 0 0->0]
r 15.010312019 _25_ RTR  --- 3 DSR 32 [0 ffffffff 1 800] ------- [1:255 21:255 32 0] 1 [1 1] [0 1 0 0->0] [0 0 0 0->0]
r 15.010312019 _3_ RTR  --- 3 DSR 32 [0 ffffffff 1 800] ------- [1:255 21:255 32 0] 1 [1 1] [0 1 0 0->0] [0 0 0 0->0]
r 15.010312019 _24_ RTR  --- 3 DSR 32 [0 ffffffff 1 800] ------- [1:255 21:255 32 0] 1 [1 1] [0 1 0 0->0] [0 0 0 0->0]
r 15.010312019 _5_ RTR  --- 3 DSR 32 [0 ffffffff 1 800] ------- [1:255 21:255 32 0] 1 [1 1] [0 1 0 0->0] [0 0 0 0->0]
s 15.011952321 _25_ RTR  --- 7 DSR 44 [0 0 0 0] ------- [25:255 24:255 254 24] 2 [0 1] [1 1 2 24->25] [0 0 0 0->0]
r 15.014098321 _24_ RTR  --- 7 DSR 44 [13a 18 19 800] ------- [25:255 24:255 254 24] 2 [0 1] [1 1 2 24->25] [0 0 0 0->0]
SFESTs 15.014098321 _24_ 4 [24 -> 25] 1(1) to 25 [24 |25 ]
s 15.014098321 _24_ RTR  --- 4 cbr 548 [0 0 0 0] ------- [24:0 25:0 32 25] [0] 0 0
r 15.020400321 _25_ RTR  --- 4 cbr 548 [13a 19 18 800] ------- [24:0 25:0 32 25] [0] 1 0
r 15.020400321 _25_ AGT  --- 4 cbr 512 [13a 19 18 800] ------- [24:0 25:0 32 25] [0] 1 0
s 15.039669847 _0_ RTR  --- 9 DSR 32 [0 0 0 0] ------- [0:255 19:255 32 0] 1 [1 2] [0 2 0 0->16] [0 0 0 0->0]
r 15.040742181 _3_ RTR  --- 9 DSR 32 [0 ffffffff 0 800] ------- [0:255 19:255 32 0] 1 [1 2] [0 2 0 0->16] [0 0 0 0->0]
r 15.040742514 _6_ RTR  --- 9 DSR 32 [0 ffffffff 0 800] ------- [0:255 19:255 32 0] 1 [1 2] [0 2 0 0->16] [0 0 0 0->0]
r 15.040742514 _1_ RTR  --- 9 DSR 32 [0 ffffffff 0 800] ------- [0:255 19:255 32 0] 1 [1 2] [0 2 0 0->16] [0 0 0 0->0]
r 15.040742593 _25_ RTR  --- 9 DSR 32 [0 ffffffff 0 800] ------- [0:255 19:255 32 0] 1 [1 2] [0 2 0 0->16] [0 0 0 0->0]
r 15.040742593 _4_ RTR  --- 9 DSR 32 [0 ffffffff 0 800] ------- [0:255 19:255 32 0] 1 [1 2] [0 2 0 0->16] [0 0 0 0->0]
f 15.041790576 _1_ RTR  --- 9 DSR 48 [0 ffffffff 0 800] ------- [0:255 19:255 32 0] 2 [1 2] [0 2 0 0->16] [0 0 0 0->0]
r 15.043190909 _4_ RTR  --- 9 DSR 48 [0 ffffffff 1 800] ------- [0:255 19:255 32 0] 2 [1 2] [0 2 0 0->16] [0 0 0 0->0]
r 15.043191047 _26_ RTR  --- 9 DSR 48 [0 ffffffff 1 800] ------- [0:255 19:255 32 0] 2 [1 2] [0 2 0 0->16] [0 0 0 0->0]
r 15.043191243 _0_ RTR  --- 9 DSR 48 [0 ffffffff 1 800] ------- [0:255 19:255 32 0] 2 [1 2] [0 2 0 0->16] [0 0 0 0->0]
r 15.043191243 _7_ RTR  --- 9 DSR 48 [0 ffffffff 1 800] ------- [0:255 19:255 32 0] 2 [1 2] [0 2 0 0->16] [0 0 0 0->0]
r 15.043191243 _2_ RTR  --- 9 DSR 48 [0 ffffffff 1 800] ------- [0:255 19:255 32 0] 2 [1 2] [0 2 0 0->16] [0 0 0 0->0]
r 15.043191321 _25_ RTR  --- 9 DSR 48 [0 ffffffff 1 800] ------- [0:255 19:255 32 0] 2 [1 2] [0 2 0 0->16] [0 0 0 0->0]
r 15.043191321 _3_ RTR  --- 9 DSR 48 [0 ffffffff 1 800] ------- [0:255 19:255 32 0] 2 [1 2] [0 2 0 0->16] [0 0 0 0->0]
r 15.043191321 _24_ RTR  --- 9 DSR 48 [0 ffffffff 1 800] ------- [0:255 19:255 32 0] 2 [1 2] [0 2 0 0->16] [0 0 0 0->0]
r 15.043191321 _5_ RTR  --- 9 DSR 48 [0 ffffffff 1 800] ------- [0:255 19:255 32 0] 2 [1 2] [0 2 0 0->16] [0 0 0 0->0]
f 15.043427032 _3_ RTR  --- 9 DSR 48 [0 ffffffff 0 800] ------- [0:255 19:255 32 0] 2 [1 2] [0 2 0 0->16] [0 0 0 0->0]
f 15.043509787 _26_ RTR  --- 9 DSR 68 [0 ffffffff 1 800] ------- [0:255 19:255 32 0] 3 [1 2] [0 2 0 0->16] [0 0 0 0->0]
r 15.044847365 _0_ RTR  --- 9 DSR 48 [0 ffffffff 3 800] ------- [0:255 19:255 32 0] 2 [1 2] [0 2 0 0->16] [0 0 0 0->0]
r 15.044847365 _6_ RTR  --- 9 DSR 48 [0 ffffffff 3 800] ------- [0:255 19:255 32 0] 2 [1 2] [0 2 0 0->16] [0 0 0 0->0]
r 15.044847503 _25_ RTR  --- 9 DSR 48 [0 ffffffff 3 800] ------- [0:255 19:255 32 0] 2 [1 2] [0 2 0 0->16] [0 0 0 0->0]
r 15.044847698 _9_ RTR  --- 9 DSR 48 [0 ffffffff 3 800] ------- [0:255 19:255 32 0] 2 [1 2] [0 2 0 0->16] [0 0 0 0->0]
r 15.044847698 _4_ RTR  --- 9 DSR 48 [0 ffffffff 3 800] ------- [0:255 19:255 32 0] 2 [1 2] [0 2 0 0->16] [0 0 0 0->0]
r 15.044847777 _23_ RTR  --- 9 DSR 48 [0 ffffffff 3 800] ------- [0:255 19:255 32 0] 2 [1 2] [0 2 0 0->16] [0 0 0 0->0]
r 15.044847777 _1_ RTR  --- 9 DSR 48 [0 ffffffff 3 800] ------- [0:255 19:255 32 0] 2 [1 2] [0 2 0 0->16] [0 0 0 0->0]
r 15.044847777 _7_ RTR  --- 9 DSR 48 [0 ffffffff 3 800] ------- [0:255 19:255 32 0] 2 [1 2] [0 2 0 0->16] [0 0 0 0->0]
f 15.046115837 _23_ RTR  --- 9 DSR 68 [0 ffffffff 3 800] ------- [0:255 19:255 32 0] 3 [1 2] [0 2 0 0->16] [0 0 0 0->0]
r 15.046342365 _24_ RTR  --- 9 DSR 68 [0 ffffffff 1a 800] ------- [0:255 19:255 32 0] 3 [1 2] [0 2 0 0->16] [0 0 0 0->0]
r 15.046342365 _4_ RTR  --- 9 DSR 68 [0 ffffffff 1a 800] ------- [0:255 19:255 32 0] 3 [1 2] [0 2 0 0->16] [0 0 0 0->0]
r 15.046342365 _5_ RTR  --- 9 DSR 68 [0 ffffffff 1a 800] ------- [0:255 19:255 32 0] 3 [1 2] [0 2 0 0->16] [0 0 0 0->0]
r 15.046342503 _7_ RTR  --- 9 DSR 68 [0 ffffffff 1a 800] ------- [0:255 19:255 32 0] 3 [1 2] [0 2 0 0->16] [0 0 0 0->0]
r 15.046342503 _1_ RTR  --- 9 DSR 68 [0 ffffffff 1a 800] ------- [0:255 19:255 32 0] 3 [1 2] [0 2 0 0->16] [0 0 0 0->0]
r 15.046342503 _2_ RTR  --- 9 DSR 68 [0 ffffffff 1a 800] ------- [0:255 19:255 32 0] 3 [1 2] [0 2 0 0->16] [0 0 0 0->0]
r 15.046342503 _8_ RTR  --- 9 DSR 68 [0 ffffffff 1a 800] ------- [0:255 19:255 32 0] 3 [1 2] [0 2 0 0->16] [0 0 0 0->0]
r 15.046342698 _22_ RTR  --- 9 DSR 68 [0 ffffffff 1a 800] ------- [0:255 19:255 32 0] 3 [1 2] [0 2 0 0->16] [0 0 0 0->0]
r 15.046342777 _10_ RTR  --- 9 DSR 68 [0 ffffffff 1a 800] ------- [0:255 19:255 32 0] 3 [1 2] [0 2 0 0->16] [0 0 0 0->0]
r 15.046342777 _25_ RTR  --- 9 DSR 68 [0 ffffffff 1a 800] ------- [0:255 19:255 32 0] 3 [1 2] [0 2 0 0->16] [0 0 0 0->0]
r 15.046342777 _11_ RTR  --- 9 DSR 68 [0 ffffffff 1a 800] ------- [0:255 19:255 32 0] 3 [1 2] [0 2 0 0->16] [0 0 0 0->0]
f 15.047098985 _6_ RTR  --- 9 DSR 48 [0 ffffffff 0 800] ------- [0:255 19:255 32 0] 2 [1 2] [0 2 0 0->16] [0 0 0 0->0]
f 15.047318723 _22_ RTR  --- 9 DSR 92 [0 ffffffff 1a 800] ------- [0:255 19:255 32 0] 4 [1 2] [0 2 0 0->16] [0 0 0 0->0]
r 15.047877308 _21_ RTR  --- 9 DSR 68 [0 ffffffff 17 800] ------- [0:255 19:255 32 0] 3 [1 2] [0 2 0 0->16] [0 0 0 0->0]
r 15.047877308 _9_ RTR  --- 9 DSR 68 [0 ffffffff 17 800] ------- [0:255 19:255 32 0] 3 [1 2] [0 2 0 0->16] [0 0 0 0->0]
r 15.047877308 _25_ RTR  --- 9 DSR 68 [0 ffffffff 17 800] ------- [0:255 19:255 32 0] 3 [1 2] [0 2 0 0->16] [0 0 0 0->0]
r 15.047877308 _10_ RTR  --- 9 DSR 68 [0 ffffffff 17 800] ------- [0:255 19:255 32 0] 3 [1 2] [0 2 0 0->16] [0 0 0 0->0]
r 15.047877446 _12_ RTR  --- 9 DSR 68 [0 ffffffff 17 800] ------- [0:255 19:255 32 0] 3 [1 2] [0 2 0 0->16] [0 0 0 0->0]
r 15.047877446 _6_ RTR  --- 9 DSR 68 [0 ffffffff 17 800] ------- [0:255 19:255 32 0] 3 [1 2] [0 2 0 0->16] [0 0 0 0->0]
r 15.047877446 _7_ RTR  --- 9 DSR 68 [0 ffffffff 17 800] ------- [0:255 19:255 32 0] 3 [1 2] [0 2 0 0->16] [0 0 0 0->0]
r 15.047877446 _13_ RTR  --- 9 DSR 68 [0 ffffffff 17 800] ------- [0:255 19:255 32 0] 3 [1 2] [0 2 0 0->16] [0 0 0 0->0]
r 15.047877641 _19_ RTR  --- 9 DSR 68 [0 ffffffff 17 800] ------- [0:255 19:255 32 0] 3 [1 2] [0 2 0 0->16] [0 0 0 0->0]
r 15.047877641 _22_ RTR  --- 9 DSR 68 [0 ffffffff 17 800] ------- [0:255 19:255 32 0] 3 [1 2] [0 2 0 0->16] [0 0 0 0->0]
r 15.047877720 _15_ RTR  --- 9 DSR 68 [0 ffffffff 17 800] ------- [0:255 19:255 32 0] 3 [1 2] [0 2 0 0->16] [0 0 0 0->0]
r 15.047877720 _3_ RTR  --- 9 DSR 68 [0 ffffffff 17 800] ------- [0:255 19:255 32 0] 3 [1 2] [0 2 0 0->16] [0 0 0 0->0]
r 15.047877720 _4_ RTR  --- 9 DSR 68 [0 ffffffff 17 800] ------- [0:255 19:255 32 0] 3 [1 2] [0 2 0 0->16] [0 0 0 0->0]
r 15.047877720 _16_ RTR  --- 9 DSR 68 [0 ffffffff 17 800] ------- [0:255 19:255 32 0] 3 [1 2] [0 2 0 0->16] [0 0 0 0->0]
r 15.047877720 _20_ RTR  --- 9 DSR 68 [0 ffffffff 17 800] ------- [0:255 19:255 32 0] 3 [1 2] [0 2 0 0->16] [0 0 0 0->0]
r 15.047877720 _24_ RTR  --- 9 DSR 68 [0 ffffffff 17 800] ------- [0:255 19:255 32 0] 3 [1 2] [0 2 0 0->16] [0 0 0 0->0]
f 15.048068032 _4_ RTR  --- 9 DSR 48 [0 ffffffff 0 800] ------- [0:255 19:255 32 0] 2 [1 2] [0 2 0 0->16] [0 0 0 0->0]
s 15.048138335 _19_ RTR  --- 10 DSR 60 [0 0 0 0] ------- [19:255 0:255 254 23] 4 [0 2] [1 2 4 0->19] [0 0 0 0->0]
f 15.048483236 _7_ RTR  --- 9 DSR 68 [0 ffffffff 1 800] ------- [0:255 19:255 32 0] 3 [1 2] [0 2 0 0->16] [0 0 0 0->0]
f 15.048705413 _8_ RTR  --- 9 DSR 92 [0 ffffffff 1a 800] ------- [0:255 19:255 32 0] 4 [1 2] [0 2 0 0->16] [0 0 0 0->0]
f 15.048839922 _16_ RTR  --- 9 DSR 92 [0 ffffffff 17 800] ------- [0:255 19:255 32 0] 4 [1 2] [0 2 0 0->16] [0 0 0 0->0]
r 15.048968366 _1_ RTR  --- 9 DSR 48 [0 ffffffff 4 800] ------- [0:255 19:255 32 0] 2 [1 2] [0 2 0 0->16] [0 0 0 0->0]
r 15.048968366 _7_ RTR  --- 9 DSR 48 [0 ffffffff 4 800] ------- [0:255 19:255 32 0] 2 [1 2] [0 2 0 0->16] [0 0 0 0->0]
r 15.048968366 _26_ RTR  --- 9 DSR 48 [0 ffffffff 4 800] ------- [0:255 19:255 32 0] 2 [1 2] [0 2 0 0->16] [0 0 0 0->0]
r 15.048968504 _25_ RTR  --- 9 DSR 48 [0 ffffffff 4 800] ------- [0:255 19:255 32 0] 2 [1 2] [0 2 0 0->16] [0 0 0 0->0]
r 15.048968504 _24_ RTR  --- 9 DSR 48 [0 ffffffff 4 800] ------- [0:255 19:255 32 0] 2 [1 2] [0 2 0 0->16] [0 0 0 0->0]
r 15.048968699 _3_ RTR  --- 9 DSR 48 [0 ffffffff 4 800] ------- [0:255 19:255 32 0] 2 [1 2] [0 2 0 0->16] [0 0 0 0->0]
r 15.048968699 _10_ RTR  --- 9 DSR 48 [0 ffffffff 4 800] ------- [0:255 19:255 32 0] 2 [1 2] [0 2 0 0->16] [0 0 0 0->0]
r 15.048968699 _5_ RTR  --- 9 DSR 48 [0 ffffffff 4 800] ------- [0:255 19:255 32 0] 2 [1 2] [0 2 0 0->16] [0 0 0 0->0]
r 15.048968778 _23_ RTR  --- 9 DSR 48 [0 ffffffff 4 800] ------- [0:255 19:255 32 0] 2 [1 2] [0 2 0 0->16] [0 0 0 0->0]
r 15.048968778 _6_ RTR  --- 9 DSR 48 [0 ffffffff 4 800] ------- [0:255 19:255 32 0] 2 [1 2] [0 2 0 0->16] [0 0 0 0->0]
r 15.048968778 _0_ RTR  --- 9 DSR 48 [0 ffffffff 4 800] ------- [0:255 19:255 32 0] 2 [1 2] [0 2 0 0->16] [0 0 0 0->0]
r 15.048968778 _22_ RTR  --- 9 DSR 48 [0 ffffffff 4 800] ------- [0:255 19:255 32 0] 2 [1 2] [0 2 0 0->16] [0 0 0 0->0]
r 15.048968778 _2_ RTR  --- 9 DSR 48 [0 ffffffff 4 800] ------- [0:255 19:255 32 0] 2 [1 2] [0 2 0 0->16] [0 0 0 0->0]
r 15.048968778 _8_ RTR  --- 9 DSR 48 [0 ffffffff 4 800] ------- [0:255 19:255 32 0] 2 [1 2] [0 2 0 0->16] [0 0 0 0->0]
f 15.049096385 _25_ RTR  --- 9 DSR 48 [0 ffffffff 0 800] ------- [0:255 19:255 32 0] 2 [1 2] [0 2 0 0->16] [0 0 0 0->0]
f 15.049558696 _5_ RTR  --- 9 DSR 68 [0 ffffffff 1 800] ------- [0:255 19:255 32 0] 3 [1 2] [0 2 0 0->16] [0 0 0 0->0]
f 15.050124980 _13_ RTR  --- 9 DSR 92 [0 ffffffff 17 800] ------- [0:255 19:255 32 0] 4 [1 2] [0 2 0 0->16] [0 0 0 0->0]
r 15.050191111 _20_ RTR  --- 9 DSR 92 [0 ffffffff 16 800] ------- [0:255 19:255 32 0] 4 [1 2] [0 2 0 0->16] [0 0 0 0->0]
r 15.050191111 _10_ RTR  --- 9 DSR 92 [0 ffffffff 16 800] ------- [0:255 19:255 32 0] 4 [1 2] [0 2 0 0->16] [0 0 0 0->0]
r 15.050191111 _24_ RTR  --- 9 DSR 92 [0 ffffffff 16 800] ------- [0:255 19:255 32 0] 4 [1 2] [0 2 0 0->16] [0 0 0 0->0]
r 15.050191111 _11_ RTR  --- 9 DSR 92 [0 ffffffff 16 800] ------- [0:255 19:255 32 0] 4 [1 2] [0 2 0 0->16] [0 0 0 0->0]
r 15.050191249 _13_ RTR  --- 9 DSR 92 [0 ffffffff 16 800] ------- [0:255 19:255 32 0] 4 [1 2] [0 2 0 0->16] [0 0 0 0->0]
r 15.050191249 _7_ RTR  --- 9 DSR 92 [0 ffffffff 16 800] ------- [0:255 19:255 32 0] 4 [1 2] [0 2 0 0->16] [0 0 0 0->0]
r 15.050191249 _8_ RTR  --- 9 DSR 92 [0 ffffffff 16 800] ------- [0:255 19:255 32 0] 4 [1 2] [0 2 0 0->16] [0 0 0 0->0]
r 15.050191249 _14_ RTR  --- 9 DSR 92 [0 ffffffff 16 800] ------- [0:255 19:255 32 0] 4 [1 2] [0 2 0 0->16] [0 0 0 0->0]
r 15.050191444 _18_ RTR  --- 9 DSR 92 [0 ffffffff 16 800] ------- [0:255 19:255 32 0] 4 [1 2] [0 2 0 0->16] [0 0 0 0->0]
r 15.050191444 _23_ RTR  --- 9 DSR 92 [0 ffffffff 16 800] ------- [0:255 19:255 32 0] 4 [1 2] [0 2 0 0->16] [0 0 0 0->0]
r 15.050191444 _26_ RTR  --- 9 DSR 92 [0 ffffffff 16 800] ------- [0:255 19:255 32 0] 4 [1 2] [0 2 0 0->16] [0 0 0 0->0]
r 15.050191523 _16_ RTR  --- 9 DSR 92 [0 ffffffff 16 800] ------- [0:255 19:255 32 0] 4 [1 2] [0 2 0 0->16] [0 0 0 0->0]
r 15.050191523 _4_ RTR  --- 9 DSR 92 [0 ffffffff 16 800] ------- [0:255 19:255 32 0] 4 [1 2] [0 2 0 0->16] [0 0 0 0->0]
r 15.050191523 _25_ RTR  --- 9 DSR 92 [0 ffffffff 16 800] ------- [0:255 19:255 32 0] 4 [1 2] [0 2 0 0->16] [0 0 0 0->0]
r 15.050191523 _21_ RTR  --- 9 DSR 92 [0 ffffffff 16 800] ------- [0:255 19:255 32 0] 4 [1 2] [0 2 0 0->16] [0 0 0 0->0]
r 15.050191523 _5_ RTR  --- 9 DSR 92 [0 ffffffff 16 800] ------- [0:255 19:255 32 0] 4 [1 2] [0 2 0 0->16] [0 0 0 0->0]
r 15.050191523 _17_ RTR  --- 9 DSR 92 [0 ffffffff 16 800] ------- [0:255 19:255 32 0] 4 [1 2] [0 2 0 0->16] [0 0 0 0->0]
r 15.051041856 _23_ RTR  --- 9 DSR 48 [0 ffffffff 19 800] ------- [0:255 19:255 32 0] 2 [1 2] [0 2 0 0->16] [0 0 0 0->0]
r 15.051041856 _6_ RTR  --- 9 DSR 48 [0 ffffffff 19 800] ------- [0:255 19:255 32 0] 2 [1 2] [0 2 0 0->16] [0 0 0 0->0]
r 15.051041856 _7_ RTR  --- 9 DSR 48 [0 ffffffff 19 800] ------- [0:255 19:255 32 0] 2 [1 2] [0 2 0 0->16] [0 0 0 0->0]
r 15.051041994 _9_ RTR  --- 9 DSR 48 [0 ffffffff 19 800] ------- [0:255 19:255 32 0] 2 [1 2] [0 2 0 0->16] [0 0 0 0->0]
r 15.051041994 _3_ RTR  --- 9 DSR 48 [0 ffffffff 19 800] ------- [0:255 19:255 32 0] 2 [1 2] [0 2 0 0->16] [0 0 0 0->0]
r 15.051041994 _4_ RTR  --- 9 DSR 48 [0 ffffffff 19 800] ------- [0:255 19:255 32 0] 2 [1 2] [0 2 0 0->16] [0 0 0 0->0]
r 15.051042268 _0_ RTR  --- 9 DSR 48 [0 ffffffff 19 800] ------- [0:255 19:255 32 0] 2 [1 2] [0 2 0 0->16] [0 0 0 0->0]
r 15.051042268 _1_ RTR  --- 9 DSR 48 [0 ffffffff 19 800] ------- [0:255 19:255 32 0] 2 [1 2] [0 2 0 0->16] [0 0 0 0->0]
r 15.051042268 _26_ RTR  --- 9 DSR 48 [0 ffffffff 19 800] ------- [0:255 19:255 32 0] 2 [1 2] [0 2 0 0->16] [0 0 0 0->0]
r 15.051393856 _13_ RTR  --- 9 DSR 92 [0 ffffffff 10 800] ------- [0:255 19:255 32 0] 4 [1 2] [0 2 0 0->16] [0 0 0 0->0]
r 15.051393856 _19_ RTR  --- 9 DSR 92 [0 ffffffff 10 800] ------- [0:255 19:255 32 0] 4 [1 2] [0 2 0 0->16] [0 0 0 0->0]
r 15.051393856 _18_ RTR  --- 9 DSR 92 [0 ffffffff 10 800] ------- [0:255 19:255 32 0] 4 [1 2] [0 2 0 0->16] [0 0 0 0->0]
r 15.051393994 _20_ RTR  --- 9 DSR 92 [0 ffffffff 10 800] ------- [0:255 19:255 32 0] 4 [1 2] [0 2 0 0->16] [0 0 0 0->0]
r 15.051394190 _17_ RTR  --- 9 DSR 92 [0 ffffffff 10 800] ------- [0:255 19:255 32 0] 4 [1 2] [0 2 0 0->16] [0 0 0 0->0]
f 15.051762847 _15_ RTR  --- 9 DSR 92 [0 ffffffff 17 800] ------- [0:255 19:255 32 0] 4 [1 2] [0 2 0 0->16] [0 0 0 0->0]
f 15.051819393 _24_ RTR  --- 9 DSR 68 [0 ffffffff 1 800] ------- [0:255 19:255 32 0] 3 [1 2] [0 2 0 0->16] [0 0 0 0->0]
f 15.051902760 _2_ RTR  --- 9 DSR 68 [0 ffffffff 1 800] ------- [0:255 19:255 32 0] 3 [1 2] [0 2 0 0->16] [0 0 0 0->0]
s 15.052151986 _19_ RTR  --- 11 DSR 68 [0 0 0 0] ------- [19:255 0:255 254 16] 5 [0 2] [1 2 5 0->19] [0 0 0 0->0]
f 15.052226017 _20_ RTR  --- 9 DSR 92 [0 ffffffff 17 800] ------- [0:255 19:255 32 0] 4 [1 2] [0 2 0 0->16] [0 0 0 0->0]
f 15.052386327 _11_ RTR  --- 9 DSR 92 [0 ffffffff 1a 800] ------- [0:255 19:255 32 0] 4 [1 2] [0 2 0 0->16] [0 0 0 0->0]
f 15.053076253 _9_ RTR  --- 9 DSR 68 [0 ffffffff 3 800] ------- [0:255 19:255 32 0] 3 [1 2] [0 2 0 0->16] [0 0 0 0->0]
r 15.053150523 _23_ RTR  --- 10 DSR 60 [13a 17 13 800] ------- [19:255 0:255 254 23] 4 [0 2] [1 2 4 0->19] [0 0 0 0->0]
f 15.053150523 _23_ RTR  --- 10 DSR 60 [13a 17 13 800] ------- [19:255 0:255 253 3] 4 [0 2] [1 2 4 0->19] [0 0 0 0->0]
f 15.053347304 _10_ RTR  --- 9 DSR 92 [0 ffffffff 1a 800] ------- [0:255 19:255 32 0] 4 [1 2] [0 2 0 0->16] [0 0 0 0->0]
f 15.053568684 _18_ RTR  --- 9 DSR 120 [0 ffffffff 16 800] ------- [0:255 19:255 32 0] 5 [1 2] [0 2 0 0->16] [0 0 0 0->0]
f 15.054234000 _21_ RTR  --- 9 DSR 92 [0 ffffffff 17 800] ------- [0:255 19:255 32 0] 4 [1 2] [0 2 0 0->16] [0 0 0 0->0]
r 15.055107602 _12_ RTR  --- 9 DSR 92 [0 ffffffff f 800] ------- [0:255 19:255 32 0] 4 [1 2] [0 2 0 0->16] [0 0 0 0->0]
r 15.055107602 _19_ RTR  --- 9 DSR 92 [0 ffffffff f 800] ------- [0:255 19:255 32 0] 4 [1 2] [0 2 0 0->16] [0 0 0 0->0]
r 15.055107740 _21_ RTR  --- 9 DSR 92 [0 ffffffff f 800] ------- [0:255 19:255 32 0] 4 [1 2] [0 2 0 0->16] [0 0 0 0->0]
r 15.055107935 _9_ RTR  --- 9 DSR 92 [0 ffffffff f 800] ------- [0:255 19:255 32 0] 4 [1 2] [0 2 0 0->16] [0 0 0 0->0]
r 15.055107935 _16_ RTR  --- 9 DSR 92 [0 ffffffff f 800] ------- [0:255 19:255 32 0] 4 [1 2] [0 2 0 0->16] [0 0 0 0->0]
r 15.055633271 _2_ RTR  --- 9 DSR 68 [0 ffffffff 5 800] ------- [0:255 19:255 32 0] 3 [1 2] [0 2 0 0->16] [0 0 0 0->0]
r 15.055633271 _26_ RTR  --- 9 DSR 68 [0 ffffffff 5 800] ------- [0:255 19:255 32 0] 3 [1 2] [0 2 0 0->16] [0 0 0 0->0]
r 15.055633271 _8_ RTR  --- 9 DSR 68 [0 ffffffff 5 800] ------- [0:255 19:255 32 0] 3 [1 2] [0 2 0 0->16] [0 0 0 0->0]
r 15.055633409 _24_ RTR  --- 9 DSR 68 [0 ffffffff 5 800] ------- [0:255 19:255 32 0] 3 [1 2] [0 2 0 0->16] [0 0 0 0->0]
r 15.055633604 _4_ RTR  --- 9 DSR 68 [0 ffffffff 5 800] ------- [0:255 19:255 32 0] 3 [1 2] [0 2 0 0->16] [0 0 0 0->0]
r 15.055633683 _1_ RTR  --- 9 DSR 68 [0 ffffffff 5 800] ------- [0:255 19:255 32 0] 3 [1 2] [0 2 0 0->16] [0 0 0 0->0]
f 15.056666408 _12_ RTR  --- 9 DSR 92 [0 ffffffff 17 800] ------- [0:255 19:255 32 0] 4 [1 2] [0 2 0 0->16] [0 0 0 0->0]
r 15.057195604 _5_ RTR  --- 9 DSR 92 [0 ffffffff 8 800] ------- [0:255 19:255 32 0] 4 [1 2] [0 2 0 0->16] [0 0 0 0->0]
r 15.057195604 _24_ RTR  --- 9 DSR 92 [0 ffffffff 8 800] ------- [0:255 19:255 32 0] 4 [1 2] [0 2 0 0->16] [0 0 0 0->0]
r 15.057195604 _11_ RTR  --- 9 DSR 92 [0 ffffffff 8 800] ------- [0:255 19:255 32 0] 4 [1 2] [0 2 0 0->16] [0 0 0 0->0]
r 15.057195742 _26_ RTR  --- 9 DSR 92 [0 ffffffff 8 800] ------- [0:255 19:255 32 0] 4 [1 2] [0 2 0 0->16] [0 0 0 0->0]
r 15.057195742 _22_ RTR  --- 9 DSR 92 [0 ffffffff 8 800] ------- [0:255 19:255 32 0] 4 [1 2] [0 2 0 0->16] [0 0 0 0->0]
r 15.057195937 _2_ RTR  --- 9 DSR 92 [0 ffffffff 8 800] ------- [0:255 19:255 32 0] 4 [1 2] [0 2 0 0->16] [0 0 0 0->0]
r 15.057195937 _7_ RTR  --- 9 DSR 92 [0 ffffffff 8 800] ------- [0:255 19:255 32 0] 4 [1 2] [0 2 0 0->16] [0 0 0 0->0]
r 15.057195937 _14_ RTR  --- 9 DSR 92 [0 ffffffff 8 800] ------- [0:255 19:255 32 0] 4 [1 2] [0 2 0 0->16] [0 0 0 0->0]
r 15.057196016 _20_ RTR  --- 9 DSR 92 [0 ffffffff 8 800] ------- [0:255 19:255 32 0] 4 [1 2] [0 2 0 0->16] [0 0 0 0->0]
r 15.057196016 _10_ RTR  --- 9 DSR 92 [0 ffffffff 8 800] ------- [0:255 19:255 32 0] 4 [1 2] [0 2 0 0->16] [0 0 0 0->0]
r 15.057196016 _4_ RTR  --- 9 DSR 92 [0 ffffffff 8 800] ------- [0:255 19:255 32 0] 4 [1 2] [0 2 0 0->16] [0 0 0 0->0]
f 15.058200061 _17_ RTR  --- 9 DSR 120 [0 ffffffff 16 800] ------- [0:255 19:255 32 0] 5 [1 2] [0 2 0 0->16] [0 0 0 0->0]
r 15.058398349 _18_ RTR  --- 9 DSR 92 [0 ffffffff 14 800] ------- [0:255 19:255 32 0] 4 [1 2] [0 2 0 0->16] [0 0 0 0->0]
r 15.058398349 _13_ RTR  --- 9 DSR 92 [0 ffffffff 14 800] ------- [0:255 19:255 32 0] 4 [1 2] [0 2 0 0->16] [0 0 0 0->0]
r 15.058398349 _22_ RTR  --- 9 DSR 92 [0 ffffffff 14 800] ------- [0:255 19:255 32 0] 4 [1 2] [0 2 0 0->16] [0 0 0 0->0]
r 15.058398349 _14_ RTR  --- 9 DSR 92 [0 ffffffff 14 800] ------- [0:255 19:255 32 0] 4 [1 2] [0 2 0 0->16] [0 0 0 0->0]
r 15.058398487 _16_ RTR  --- 9 DSR 92 [0 ffffffff 14 800] ------- [0:255 19:255 32 0] 4 [1 2] [0 2 0 0->16] [0 0 0 0->0]
r 15.058398487 _10_ RTR  --- 9 DSR 92 [0 ffffffff 14 800] ------- [0:255 19:255 32 0] 4 [1 2] [0 2 0 0->16] [0 0 0 0->0]
r 15.058398487 _11_ RTR  --- 9 DSR 92 [0 ffffffff 14 800] ------- [0:255 19:255 32 0] 4 [1 2] [0 2 0 0->16] [0 0 0 0->0]
r 15.058398487 _17_ RTR  --- 9 DSR 92 [0 ffffffff 14 800] ------- [0:255 19:255 32 0] 4 [1 2] [0 2 0 0->16] [0 0 0 0->0]
r 15.058398683 _21_ RTR  --- 9 DSR 92 [0 ffffffff 14 800] ------- [0:255 19:255 32 0] 4 [1 2] [0 2 0 0->16] [0 0 0 0->0]
r 15.058398683 _24_ RTR  --- 9 DSR 92 [0 ffffffff 14 800] ------- [0:255 19:255 32 0] 4 [1 2] [0 2 0 0->16] [0 0 0 0->0]
r 15.058398761 _7_ RTR  --- 9 DSR 92 [0 ffffffff 14 800] ------- [0:255 19:255 32 0] 4 [1 2] [0 2 0 0->16] [0 0 0 0->0]
r 15.058398761 _23_ RTR  --- 9 DSR 92 [0 ffffffff 14 800] ------- [0:255 19:255 32 0] 4 [1 2] [0 2 0 0->16] [0 0 0 0->0]
r 15.058398761 _19_ RTR  --- 9 DSR 92 [0 ffffffff 14 800] ------- [0:255 19:255 32 0] 4 [1 2] [0 2 0 0->16] [0 0 0 0->0]
r 15.058398761 _8_ RTR  --- 9 DSR 92 [0 ffffffff 14 800] ------- [0:255 19:255 32 0] 4 [1 2] [0 2 0 0->16] [0 0 0 0->0]
f 15.059366948 _14_ RTR  --- 9 DSR 120 [0 ffffffff 16 800] ------- [0:255 19:255 32 0] 5 [1 2] [0 2 0 0->16] [0 0 0 0->0]
r 15.059489016 _22_ RTR  --- 9 DSR 68 [0 ffffffff 18 800] ------- [0:255 19:255 32 0] 3 [1 2] [0 2 0 0->16] [0 0 0 0->0]
r 15.059489016 _7_ RTR  --- 9 DSR 68 [0 ffffffff 18 800] ------- [0:255 19:255 32 0] 3 [1 2] [0 2 0 0->16] [0 0 0 0->0]
r 15.059489016 _26_ RTR  --- 9 DSR 68 [0 ffffffff 18 800] ------- [0:255 19:255 32 0] 3 [1 2] [0 2 0 0->16] [0 0 0 0->0]
r 15.059489016 _8_ RTR  --- 9 DSR 68 [0 ffffffff 18 800] ------- [0:255 19:255 32 0] 3 [1 2] [0 2 0 0->16] [0 0 0 0->0]
r 15.059489154 _10_ RTR  --- 9 DSR 68 [0 ffffffff 18 800] ------- [0:255 19:255 32 0] 3 [1 2] [0 2 0 0->16] [0 0 0 0->0]
r 15.059489154 _4_ RTR  --- 9 DSR 68 [0 ffffffff 18 800] ------- [0:255 19:255 32 0] 3 [1 2] [0 2 0 0->16] [0 0 0 0->0]
r 15.059489154 _5_ RTR  --- 9 DSR 68 [0 ffffffff 18 800] ------- [0:255 19:255 32 0] 3 [1 2] [0 2 0 0->16] [0 0 0 0->0]
r 15.059489154 _11_ RTR  --- 9 DSR 68 [0 ffffffff 18 800] ------- [0:255 19:255 32 0] 3 [1 2] [0 2 0 0->16] [0 0 0 0->0]
r 15.059489349 _20_ RTR  --- 9 DSR 68 [0 ffffffff 18 800] ------- [0:255 19:255 32 0] 3 [1 2] [0 2 0 0->16] [0 0 0 0->0]
r 15.059489349 _25_ RTR  --- 9 DSR 68 [0 ffffffff 18 800] ------- [0:255 19:255 32 0] 3 [1 2] [0 2 0 0->16] [0 0 0 0->0]
r 15.059489428 _13_ RTR  --- 9 DSR 68 [0 ffffffff 18 800] ------- [0:255 19:255 32 0] 3 [1 2] [0 2 0 0->16] [0 0 0 0->0]
r 15.059489428 _1_ RTR  --- 9 DSR 68 [0 ffffffff 18 800] ------- [0:255 19:255 32 0] 3 [1 2] [0 2 0 0->16] [0 0 0 0->0]
r 15.059489428 _23_ RTR  --- 9 DSR 68 [0 ffffffff 18 800] ------- [0:255 19:255 32 0] 3 [1 2] [0 2 0 0->16] [0 0 0 0->0]
r 15.059489428 _2_ RTR  --- 9 DSR 68 [0 ffffffff 18 800] ------- [0:255 19:255 32 0] 3 [1 2] [0 2 0 0->16] [0 0 0 0->0]
r 15.059489428 _14_ RTR  --- 9 DSR 68 [0 ffffffff 18 800] ------- [0:255 19:255 32 0] 3 [1 2] [0 2 0 0->16] [0 0 0 0->0]
r 15.060751487 _8_ RTR  --- 9 DSR 92 [0 ffffffff b 800] ------- [0:255 19:255 32 0] 4 [1 2] [0 2 0 0->16] [0 0 0 0->0]
r 15.060751487 _22_ RTR  --- 9 DSR 92 [0 ffffffff b 800] ------- [0:255 19:255 32 0] 4 [1 2] [0 2 0 0->16] [0 0 0 0->0]
r 15.060751487 _14_ RTR  --- 9 DSR 92 [0 ffffffff b 800] ------- [0:255 19:255 32 0] 4 [1 2] [0 2 0 0->16] [0 0 0 0->0]
r 15.060751625 _24_ RTR  --- 9 DSR 92 [0 ffffffff b 800] ------- [0:255 19:255 32 0] 4 [1 2] [0 2 0 0->16] [0 0 0 0->0]
r 15.060751625 _20_ RTR  --- 9 DSR 92 [0 ffffffff b 800] ------- [0:255 19:255 32 0] 4 [1 2] [0 2 0 0->16] [0 0 0 0->0]
r 15.060751821 _5_ RTR  --- 9 DSR 92 [0 ffffffff b 800] ------- [0:255 19:255 32 0] 4 [1 2] [0 2 0 0->16] [0 0 0 0->0]
r 15.060751821 _10_ RTR  --- 9 DSR 92 [0 ffffffff b 800] ------- [0:255 19:255 32 0] 4 [1 2] [0 2 0 0->16] [0 0 0 0->0]
r 15.060751821 _17_ RTR  --- 9 DSR 92 [0 ffffffff b 800] ------- [0:255 19:255 32 0] 4 [1 2] [0 2 0 0->16] [0 0 0 0->0]
r 15.060751899 _26_ RTR  --- 9 DSR 92 [0 ffffffff b 800] ------- [0:255 19:255 32 0] 4 [1 2] [0 2 0 0->16] [0 0 0 0->0]
r 15.060751899 _18_ RTR  --- 9 DSR 92 [0 ffffffff b 800] ------- [0:255 19:255 32 0] 4 [1 2] [0 2 0 0->16] [0 0 0 0->0]
r 15.060751899 _13_ RTR  --- 9 DSR 92 [0 ffffffff b 800] ------- [0:255 19:255 32 0] 4 [1 2] [0 2 0 0->16] [0 0 0 0->0]
r 15.060751899 _7_ RTR  --- 9 DSR 92 [0 ffffffff b 800] ------- [0:255 19:255 32 0] 4 [1 2] [0 2 0 0->16] [0 0 0 0->0]
s 15.060753065 _19_ RTR  --- 12 DSR 68 [0 0 0 0] ------- [19:255 0:255 254 15] 5 [0 2] [1 2 5 0->19] [0 0 0 0->0]
r 15.062054233 _21_ RTR  --- 9 DSR 92 [0 ffffffff d 800] ------- [0:255 19:255 32 0] 4 [1 2] [0 2 0 0->16] [0 0 0 0->0]
r 15.062054371 _23_ RTR  --- 9 DSR 92 [0 ffffffff d 800] ------- [0:255 19:255 32 0] 4 [1 2] [0 2 0 0->16] [0 0 0 0->0]
r 15.062054371 _19_ RTR  --- 9 DSR 92 [0 ffffffff d 800] ------- [0:255 19:255 32 0] 4 [1 2] [0 2 0 0->16] [0 0 0 0->0]
r 15.062054566 _12_ RTR  --- 9 DSR 92 [0 ffffffff d 800] ------- [0:255 19:255 32 0] 4 [1 2] [0 2 0 0->16] [0 0 0 0->0]
r 15.062054645 _15_ RTR  --- 9 DSR 92 [0 ffffffff d 800] ------- [0:255 19:255 32 0] 4 [1 2] [0 2 0 0->16] [0 0 0 0->0]
r 15.062054645 _9_ RTR  --- 9 DSR 92 [0 ffffffff d 800] ------- [0:255 19:255 32 0] 4 [1 2] [0 2 0 0->16] [0 0 0 0->0]
r 15.062277821 _11_ RTR  --- 9 DSR 120 [0 ffffffff e 800] ------- [0:255 19:255 32 0] 5 [1 2] [0 2 0 0->16] [0 0 0 0->0]
r 15.062277821 _17_ RTR  --- 9 DSR 120 [0 ffffffff e 800] ------- [0:255 19:255 32 0] 5 [1 2] [0 2 0 0->16] [0 0 0 0->0]
r 15.062278154 _13_ RTR  --- 9 DSR 120 [0 ffffffff e 800] ------- [0:255 19:255 32 0] 5 [1 2] [0 2 0 0->16] [0 0 0 0->0]
s 15.063309066 _19_ RTR  --- 13 DSR 68 [0 0 0 0] ------- [19:255 0:255 254 20] 5 [0 2] [1 2 5 0->19] [0 0 0 0->0]
r 15.064044978 _14_ RTR  --- 9 DSR 120 [0 ffffffff 11 800] ------- [0:255 19:255 32 0] 5 [1 2] [0 2 0 0->16] [0 0 0 0->0]
r 15.064044978 _18_ RTR  --- 9 DSR 120 [0 ffffffff 11 800] ------- [0:255 19:255 32 0] 5 [1 2] [0 2 0 0->16] [0 0 0 0->0]
r 15.064045116 _20_ RTR  --- 9 DSR 120 [0 ffffffff 11 800] ------- [0:255 19:255 32 0] 5 [1 2] [0 2 0 0->16] [0 0 0 0->0]
r 15.064045311 _11_ RTR  --- 9 DSR 120 [0 ffffffff 11 800] ------- [0:255 19:255 32 0] 5 [1 2] [0 2 0 0->16] [0 0 0 0->0]
r 15.064045311 _16_ RTR  --- 9 DSR 120 [0 ffffffff 11 800] ------- [0:255 19:255 32 0] 5 [1 2] [0 2 0 0->16] [0 0 0 0->0]
r 15.064045390 _22_ RTR  --- 9 DSR 120 [0 ffffffff 11 800] ------- [0:255 19:255 32 0] 5 [1 2] [0 2 0 0->16] [0 0 0 0->0]
r 15.064045390 _13_ RTR  --- 9 DSR 120 [0 ffffffff 11 800] ------- [0:255 19:255 32 0] 5 [1 2] [0 2 0 0->16] [0 0 0 0->0]
r 15.065491311 _16_ RTR  --- 9 DSR 120 [0 ffffffff 12 800] ------- [0:255 19:255 32 0] 5 [1 2] [0 2 0 0->16] [0 0 0 0->0]
r 15.065491311 _20_ RTR  --- 9 DSR 120 [0 ffffffff 12 800] ------- [0:255 19:255 32 0] 5 [1 2] [0 2 0 0->16] [0 0 0 0->0]