n -t * -s 0  -x 100 -y 0 -Z 0 -z 30  -v circle -c black
n -t * -s 1  -x 300 -y 0 -Z 0 -z 30  -v circle -c black
n -t * -s 2  -x 500 -y 0 -Z 0 -z 30  -v circle -c black
n -t * -s 3  -x 100 -y 100 -Z 0 -z 30  -v circle -c black
n -t * -s 4  -x 300 -y 100 -Z 0 -z 30  -v circle -c black
n -t * -s 5  -x 500 -y 100 -Z 0 -z 30  -v circle -c black
n -t * -s 6  -x 100 -y 200 -Z 0 -z 30  -v circle -c black
n -t * -s 7  -x 300 -y 200 -Z 0 -z 30  -v circle -c black
n -t * -s 8  -x 500 -y 200 -Z 0 -z 30  -v circle -c black
n -t * -s 9  -x 100 -y 300 -Z 0 -z 30  -v circle -c black
n -t * -s 10  -x 300 -y 300 -Z 0 -z 30  -v circle -c black
n -t * -s 11  -x 500 -y 300 -Z 0 -z 30  -v circle -c black
n -t * -s 12  -x 100 -y 400 -Z 0 -z 30  -v circle -c black
n -t * -s 13  -x 300 -y 400 -Z 0 -z 30  -v circle -c black
n -t * -s 14  -x 500 -y 400 -Z 0 -z 30  -v circle -c black
n -t * -s 15  -x 100 -y 500 -Z 0 -z 30  -v circle -c black
n -t * -s 16  -x 300 -y 500 -Z 0 -z 30  -v circle -c black
n -t * -s 17  -x 500 -y 500 -Z 0 -z 30  -v circle -c black
n -t * -s 18  -x 400 -y 500 -Z 0 -z 30  -v circle -c black
n -t * -s 19  -x 200 -y 500 -Z 0 -z 30  -v circle -c black
n -t * -s 20  -x 400 -y 400 -Z 0 -z 30  -v circle -c black
n -t * -s 21  -x 200 -y 400 -Z 0 -z 30  -v circle -c black
n -t * -s 22  -x 400 -y 300 -Z 0 -z 30  -v circle -c black
n -t * -s 23  -x 200 -y 300 -Z 0 -z 30  -v circle -c black
n -t * -s 24  -x 400 -y 200 -Z 0 -z 30  -v circle -c black
n -t * -s 25  -x 200 -y 200 -Z 0 -z 30  -v circle -c black
n -t * -s 26  -x 400 -y 100 -Z 0 -z 30  -v circle -c black
V -t * -v 1.0a5 -a 0
W -t * -x 500 -y 500
A -t * -n 1 -p 0 -o 0xffffffff -c 31 -a 1
A -t * -h 1 -m 2147483647 -s 0
+ -t 15.000000000 -s 0 -d -1 -p cbr -e 512 -c 2 -a 0 -i 0 -k AGT 
- -t 15.000000000 -s 0 -d -1 -p cbr -e 512 -c 2 -a 0 -i 0 -k AGT
h -t 15.000000000 -s 0 -d -1 -p cbr -e 512 -c 2 -a 0 -i 0 -k AGT
+ -t 15.000000000 -s 1 -d -1 -p cbr -e 512 -c 2 -a 0 -i 2 -k AGT 
- -t 15.000000000 -s 1 -d -1 -p cbr -e 512 -c 2 -a 0 -i 2 -k AGT
h -t 15.000000000 -s 1 -d -1 -p cbr -e 512 -c 2 -a 0 -i 2 -k AGT
+ -t 15.000000000 -s 24 -d -1 -p cbr -e 512 -c 2 -a 0 -i 4 -k AGT 
- -t 15.000000000 -s 24 -d -1 -p cbr -e 512 -c 2 -a 0 -i 4 -k AGT
h -t 15.000000000 -s 24 -d -1 -p cbr -e 512 -c 2 -a 0 -i 4 -k AGT
+ -t 15.006709405 -s 24 -d -1 -p DSR -e 32 -c 2 -a 0 -i 5 -k RTR 
- -t 15.006709405 -s 24 -d -1 -p DSR -e 32 -c 2 -a 0 -i 5 -k RTR
h -t 15.006709405 -s 24 -d -1 -p DSR -e 32 -c 2 -a 0 -i 5 -k RTR
+ -t 15.007499249 -s 0 -d -1 -p DSR -e 32 -c 2 -a 0 -i 1 -k RTR 
- -t 15.007499249 -s 0 -d -1 -p DSR -e 32 -c 2 -a 0 -i 1 -k RTR
h -t 15.007499249 -s 0 -d -1 -p DSR -e 32 -c 2 -a 0 -i 1 -k RTR
+ -t 15.008759740 -s 1 -d -1 -p DSR -e 32 -c 2 -a 0 -i 3 -k RTR 
- -t 15.008759740 -s 1 -d -1 -p DSR -e 32 -c 2 -a 0 -i 3 -k RTR
h -t 15.008759740 -s 1 -d -1 -p DSR -e 32 -c 2 -a 0 -i 3 -k RTR
+ -t 15.011952321 -s 25 -d 24 -p DSR -e 44 -c 2 -a 0 -i 7 -k RTR 
- -t 15.011952321 -s 25 -d 24 -p DSR -e 44 -c 2 -a 0 -i 7 -k RTR
h -t 15.011952321 -s 25 -d 24 -p DSR -e 44 -c 2 -a 0 -i 7 -k RTR
+ -t 15.014098321 -s 24 -d 25 -p cbr -e 548 -c 2 -a 0 -i 4 -k RTR 
- -t 15.014098321 -s 24 -d 25 -p cbr -e 548 -c 2 -a 0 -i 4 -k RTR
h -t 15.014098321 -s 24 -d 25 -p cbr -e 548 -c 2 -a 0 -i 4 -k RTR
r -t 15.020400321 -s 25 -d 25 -p cbr -e 512 -c 2 -a 0 -i 4 -k AGT
+ -t 15.039669847 -s 0 -d -1 -p DSR -e 32 -c 2 -a 0 -i 9 -k RTR 
- -t 15.039669847 -s 0 -d -1 -p DSR -e 32 -c 2 -a 0 -i 9 -k RTR
h -t 15.039669847 -s 0 -d -1 -p DSR -e 32 -c 2 -a 0 -i 9 -k RTR
+ -t 15.041790576 -s 1 -d -1 -p DSR -e 48 -c 2 -a 0 -i 9 -k RTR 
- -t 15.041790576 -s 1 -d -1 -p DSR -e 48 -c 2 -a 0 -i 9 -k RTR
h -t 15.041790576 -s 1 -d -1 -p DSR -e 48 -c 2 -a 0 -i 9 -k RTR
+ -t 15.043427032 -s 3 -d -1 -p DSR -e 48 -c 2 -a 0 -i 9 -k RTR 
- -t 15.043427032 -s 3 -d -1 -p DSR -e 48 -c 2 -a 0 -i 9 -k RTR
h -t 15.043427032 -s 3 -d -1 -p DSR -e 48 -c 2 -a 0 -i 9 -k RTR
+ -t 15.043509787 -s 26 -d -1 -p DSR -e 68 -c 2 -a 0 -i 9 -k RTR 
- -t 15.043509787 -s 26 -d -1 -p DSR -e 68 -c 2 -a 0 -i 9 -k RTR
h -t 15.043509787 -s 26 -d -1 -p DSR -e 68 -c 2 -a 0 -i 9 -k RTR
+ -t 15.046115837 -s 23 -d -1 -p DSR -e 68 -c 2 -a 0 -i 9 -k RTR 
- -t 15.046115837 -s 23 -d -1 -p DSR -e 68 -c 2 -a 0 -i 9 -k RTR
h -t 15.046115837 -s 23 -d -1 -p DSR -e 68 -c 2 -a 0 -i 9 -k RTR
+ -t 15.047098985 -s 6 -d -1 -p DSR -e 48 -c 2 -a 0 -i 9 -k RTR 
- -t 15.047098985 -s 6 -d -1 -p DSR -e 48 -c 2 -a 0 -i 9 -k RTR
h -t 15.047098985 -s 6 -d -1 -p DSR -e 48 -c 2 -a 0 -i 9 -k RTR
+ -t 15.047318723 -s 22 -d -1 -p DSR -e 92 -c 2 -a 0 -i 9 -k RTR 
- -t 15.047318723 -s 22 -d -1 -p DSR -e 92 -c 2 -a 0 -i 9 -k RTR
h -t 15.047318723 -s 22 -d -1 -p DSR -e 92 -c 2 -a 0 -i 9 -k RTR
+ -t 15.048068032 -s 4 -d -1 -p DSR -e 48 -c 2 -a 0 -i 9 -k RTR 
- -t 15.048068032 -s 4 -d -1 -p DSR -e 48 -c 2 -a 0 -i 9 -k RTR
h -t 15.048068032 -s 4 -d -1 -p DSR -e 48 -c 2 -a 0 -i 9 -k RTR
+ -t 15.048138335 -s 19 -d 23 -p DSR -e 60 -c 2 -a 0 -i 10 -k RTR 
- -t 15.048138335 -s 19 -d 23 -p DSR -e 60 -c 2 -a 0 -i 10 -k RTR
h -t 15.048138335 -s 19 -d 23 -p DSR -e 60 -c 2 -a 0 -i 10 -k RTR
+ -t 15.048483236 -s 7 -d -1 -p DSR -e 68 -c 2 -a 0 -i 9 -k RTR 
- -t 15.048483236 -s 7 -d -1 -p DSR -e 68 -c 2 -a 0 -i 9 -k RTR
h -t 15.048483236 -s 7 -d -1 -p DSR -e 68 -c 2 -a 0 -i 9 -k RTR
+ -t 15.048705413 -s 8 -d -1 -p DSR -e 92 -c 2 -a 0 -i 9 -k RTR 
- -t 15.048705413 -s 8 -d -1 -p DSR -e 92 -c 2 -a 0 -i 9 -k RTR
h -t 15.048705413 -s 8 -d -1 -p DSR -e 92 -c 2 -a 0 -i 9 -k RTR
+ -t 15.048839922 -s 16 -d -1 -p DSR -e 92 -c 2 -a 0 -i 9 -k RTR 
- -t 15.048839922 -s 16 -d -1 -p DSR -e 92 -c 2 -a 0 -i 9 -k RTR
h -t 15.048839922 -s 16 -d -1 -p DSR -e 92 -c 2 -a 0 -i 9 -k RTR
+ -t 15.049096385 -s 25 -d -1 -p DSR -e 48 -c 2 -a 0 -i 9 -k RTR 
- -t 15.049096385 -s 25 -d -1 -p DSR -e 48 -c 2 -a 0 -i 9 -k RTR
h -t 15.049096385 -s 25 -d -1 -p DSR -e 48 -c 2 -a 0 -i 9 -k RTR
+ -t 15.049558696 -s 5 -d -1 -p DSR -e 68 -c 2 -a 0 -i 9 -k RTR 
- -t 15.049558696 -s 5 -d -1 -p DSR -e 68 -c 2 -a 0 -i 9 -k RTR
h -t 15.049558696 -s 5 -d -1 -p DSR -e 68 -c 2 -a 0 -i 9 -k RTR
+ -t 15.050124980 -s 13 -d -1 -p DSR -e 92 -c 2 -a 0 -i 9 -k RTR 
- -t 15.050124980 -s 13 -d -1 -p DSR -e 92 -c 2 -a 0 -i 9 -k RTR
h -t 15.050124980 -s 13 -d -1 -p DSR -e 92 -c 2 -a 0 -i 9 -k RTR
+ -t 15.051762847 -s 15 -d -1 -p DSR -e 92 -c 2 -a 0 -i 9 -k RTR 
- -t 15.051762847 -s 15 -d -1 -p DSR -e 92 -c 2 -a 0 -i 9 -k RTR
h -t 15.051762847 -s 15 -d -1 -p DSR -e 92 -c 2 -a 0 -i 9 -k RTR
+ -t 15.051819393 -s 24 -d -1 -p DSR -e 68 -c 2 -a 0 -i 9 -k RTR 
- -t 15.051819393 -s 24 -d -1 -p DSR -e 68 -c 2 -a 0 -i 9 -k RTR
h -t 15.051819393 -s 24 -d -1 -p DSR -e 68 -c 2 -a 0 -i 9 -k RTR
+ -t 15.051902760 -s 2 -d -1 -p DSR -e 68 -c 2 -a 0 -i 9 -k RTR 
- -t 15.051902760 -s 2 -d -1 -p DSR -e 68 -c 2 -a 0 -i 9 -k RTR
h -t 15.051902760 -s 2 -d -1 -p DSR -e 68 -c 2 -a 0 -i 9 -k RTR
+ -t 15.052151986 -s 19 -d 16 -p DSR -e 68 -c 2 -a 0 -i 11 -k RTR 
- -t 15.052151986 -s 19 -d 16 -p DSR -e 68 -c 2 -a 0 -i 11 -k RTR
h -t 15.052151986 -s 19 -d 16 -p DSR -e 68 -c 2 -a 0 -i 11 -k RTR
+ -t 15.052226017 -s 20 -d -1 -p DSR -e 92 -c 2 -a 0 -i 9 -k RTR 
- -t 15.052226017 -s 20 -d -1 -p DSR -e 92 -c 2 -a 0 -i 9 -k RTR
h -t 15.052226017 -s 20 -d -1 -p DSR -e 92 -c 2 -a 0 -i 9 -k RTR
+ -t 15.052386327 -s 11 -d -1 -p DSR -e 92 -c 2 -a 0 -i 9 -k RTR 
- -t 15.052386327 -s 11 -d -1 -p DSR -e 92 -c 2 -a 0 -i 9 -k RTR
h -t 15.052386327 -s 11 -d -1 -p DSR -e 92 -c 2 -a 0 -i 9 -k RTR
+ -t 15.053076253 -s 9 -d -1 -p DSR -e 68 -c 2 -a 0 -i 9 -k RTR 
- -t 15.053076253 -s 9 -d -1 -p DSR -e 68 -c 2 -a 0 -i 9 -k RTR
h -t 15.053076253 -s 9 -d -1 -p DSR -e 68 -c 2 -a 0 -i 9 -k RTR
+ -t 15.053150523 -s 23 -d 3 -p DSR -e 60 -c 2 -a 0 -i 10 -k RTR 
- -t 15.053150523 -s 23 -d 3 -p DSR -e 60 -c 2 -a 0 -i 10 -k RTR
h -t 15.053150523 -s 23 -d 3 -p DSR -e 60 -c 2 -a 0 -i 10 -k RTR
+ -t 15.053347304 -s 10 -d -1 -p DSR -e 92 -c 2 -a 0 -i 9 -k RTR 
- -t 15.053347304 -s 10 -d -1 -p DSR -e 92 -c 2 -a 0 -i 9 -k RTR
h -t 15.053347304 -s 10 -d -1 -p DSR -e 92 -c 2 -a 0 -i 9 -k RTR
+ -t 15.053568684 -s 18 -d -1 -p DSR -e 120 -c 2 -a 0 -i 9 -k RTR 
- -t 15.053568684 -s 18 -d -1 -p DSR -e 120 -c 2 -a 0 -i 9 -k RTR
h -t 15.053568684 -s 18 -d -1 -p DSR -e 120 -c 2 -a 0 -i 9 -k RTR
+ -t 15.054234000 -s 21 -d -1 -p DSR -e 92 -c 2 -a 0 -i 9 -k RTR 
- -t 15.054234000 -s 21 -d -1 -p DSR -e 92 -c 2 -a 0 -i 9 -k RTR
h -t 15.054234000 -s 21 -d -1 -p DSR -e 92 -c 2 -a 0 -i 9 -k RTR
+ -t 15.056666408 -s 12 -d -1 -p DSR -e 92 -c 2 -a 0 -i 9 -k RTR 
- -t 15.056666408 -s 12 -d -1 -p DSR -e 92 -c 2 -a 0 -i 9 -k RTR
h -t 15.056666408 -s 12 -d -1 -p DSR -e 92 -c 2 -a 0 -i 9 -k RTR
+ -t 15.058200061 -s 17 -d -1 -p DSR -e 120 -c 2 -a 0 -i 9 -k RTR 
- -t 15.058200061 -s 17 -d -1 -p DSR -e 120 -c 2 -a 0 -i 9 -k RTR
h -t 15.058200061 -s 17 -d -1 -p DSR -e 120 -c 2 -a 0 -i 9 -k RTR
+ -t 15.059366948 -s 14 -d -1 -p DSR -e 120 -c 2 -a 0 -i 9 -k RTR 
- -t 15.059366948 -s 14 -d -1 -p DSR -e 120 -c 2 -a 0 -i 9 -k RTR
h -t 15.059366948 -s 14 -d -1 -p DSR -e 120 -c 2 -a 0 -i 9 -k RTR
+ -t 15.060753065 -s 19 -d 15 -p DSR -e 68 -c 2 -a 0 -i 12 -k RTR 
- -t 15.060753065 -s 19 -d 15 -p DSR -e 68 -c 2 -a 0 -i 12 -k RTR
h -t 15.060753065 -s 19 -d 15 -p DSR -e 68 -c 2 -a 0 -i 12 -k RTR
+ -t 15.063309066 -s 19 -d 20 -p DSR -e 68 -c 2 -a 0 -i 13 -k RTR 
- -t 15.063309066 -s 19 -d 20 -p DSR -e 68 -c 2 -a 0 -i 13 -k RTR
h -t 15.063309066 -s 19 -d 20 -p DSR -e 68 -c 2 -a 0 -i 13 -k RTR
+ -t 15.067102929 -s 19 -d 18 -p DSR -e 76 -c 2 -a 0 -i 16 -k RTR 
- -t 15.067102929 -s 19 -d 18 -p DSR -e 76 -c 2 -a 0 -i 16 -k RTR
h -t 15.067102929 -s 19 -d 18 -p DSR -e 76 -c 2 -a 0 -i 16 -k RTR
+ -t 15.067172782 -s 1 -d -1 -p DSR -e 32 -c 2 -a 0 -i 15 -k RTR 
- -t 15.067172782 -s 1 -d -1 -p DSR -e 32 -c 2 -a 0 -i 15 -k RTR
h -t 15.067172782 -s 1 -d -1 -p DSR -e 32 -c 2 -a 0 -i 15 -k RTR
+ -t 15.067238645 -s 16 -d 23 -p DSR -e 68 -c 2 -a 0 -i 11 -k RTR 
- -t 15.067238645 -s 16 -d 23 -p DSR -e 68 -c 2 -a 0 -i 11 -k RTR
h -t 15.067238645 -s 16 -d 23 -p DSR -e 68 -c 2 -a 0 -i 11 -k RTR
+ -t 15.069304978 -s 18 -d 22 -p DSR -e 76 -c 2 -a 0 -i 16 -k RTR 
- -t 15.069304978 -s 18 -d 22 -p DSR -e 76 -c 2 -a 0 -i 16 -k RTR
h -t 15.069304978 -s 18 -d 22 -p DSR -e 76 -c 2 -a 0 -i 16 -k RTR
+ -t 15.070161360 -s 19 -d 13 -p DSR -e 68 -c 2 -a 0 -i 14 -k RTR 
- -t 15.070161360 -s 19 -d 13 -p DSR -e 68 -c 2 -a 0 -i 14 -k RTR
h -t 15.070161360 -s 19 -d 13 -p DSR -e 68 -c 2 -a 0 -i 14 -k RTR
+ -t 15.071076799 -s 24 -d -1 -p cbr -e 512 -c 2 -a 0 -i 17 -k AGT 
- -t 15.071076799 -s 24 -d -1 -p cbr -e 512 -c 2 -a 0 -i 17 -k AGT
h -t 15.071076799 -s 24 -d -1 -p cbr -e 512 -c 2 -a 0 -i 17 -k AGT
+ -t 15.071076799 -s 24 -d 25 -p cbr -e 548 -c 2 -a 0 -i 17 -k RTR 
- -t 15.071076799 -s 24 -d 25 -p cbr -e 548 -c 2 -a 0 -i 17 -k RTR
h -t 15.071076799 -s 24 -d 25 -p cbr -e 548 -c 2 -a 0 -i 17 -k RTR
+ -t 15.071410978 -s 22 -d 26 -p DSR -e 76 -c 2 -a 0 -i 16 -k RTR 
- -t 15.071410978 -s 22 -d 26 -p DSR -e 76 -c 2 -a 0 -i 16 -k RTR
h -t 15.071410978 -s 22 -d 26 -p DSR -e 76 -c 2 -a 0 -i 16 -k RTR
+ -t 15.073516978 -s 26 -d 1 -p DSR -e 76 -c 2 -a 0 -i 16 -k RTR 
- -t 15.073516978 -s 26 -d 1 -p DSR -e 76 -c 2 -a 0 -i 16 -k RTR
h -t 15.073516978 -s 26 -d 1 -p DSR -e 76 -c 2 -a 0 -i 16 -k RTR
+ -t 15.076556834 -s 19 -d 10 -p DSR -e 68 -c 2 -a 0 -i 18 -k RTR 
- -t 15.076556834 -s 19 -d 10 -p DSR -e 68 -c 2 -a 0 -i 18 -k RTR
h -t 15.076556834 -s 19 -d 10 -p DSR -e 68 -c 2 -a 0 -i 18 -k RTR
+ -t 15.076802705 -s 20 -d 23 -p DSR -e 68 -c 2 -a 0 -i 13 -k RTR 
- -t 15.076802705 -s 20 -d 23 -p DSR -e 68 -c 2 -a 0 -i 13 -k RTR
h -t 15.076802705 -s 20 -d 23 -p DSR -e 68 -c 2 -a 0 -i 13 -k RTR
+ -t 15.078845686 -s 10 -d 26 -p DSR -e 68 -c 2 -a 0 -i 18 -k RTR 
- -t 15.078845686 -s 10 -d 26 -p DSR -e 68 -c 2 -a 0 -i 18 -k RTR
h -t 15.078845686 -s 10 -d 26 -p DSR -e 68 -c 2 -a 0 -i 18 -k RTR
+ -t 15.080888394 -s 23 -d 3 -p DSR -e 68 -c 2 -a 0 -i 13 -k RTR 
- -t 15.080888394 -s 23 -d 3 -p DSR -e 68 -c 2 -a 0 -i 13 -k RTR
h -t 15.080888394 -s 23 -d 3 -p DSR -e 68 -c 2 -a 0 -i 13 -k RTR
+ -t 15.082951375 -s 23 -d 3 -p DSR -e 68 -c 2 -a 0 -i 11 -k RTR 
- -t 15.082951375 -s 23 -d 3 -p DSR -e 68 -c 2 -a 0 -i 11 -k RTR
h -t 15.082951375 -s 23 -d 3 -p DSR -e 68 -c 2 -a 0 -i 11 -k RTR
+ -t 15.087615792 -s 13 -d 23 -p DSR -e 68 -c 2 -a 0 -i 14 -k RTR 
- -t 15.087615792 -s 13 -d 23 -p DSR -e 68 -c 2 -a 0 -i 14 -k RTR
h -t 15.087615792 -s 13 -d 23 -p DSR -e 68 -c 2 -a 0 -i 14 -k RTR
+ -t 15.091698906 -s 19 -d 12 -p DSR -e 68 -c 2 -a 0 -i 20 -k RTR 
- -t 15.091698906 -s 19 -d 12 -p DSR -e 68 -c 2 -a 0 -i 20 -k RTR
h -t 15.091698906 -s 19 -d 12 -p DSR -e 68 -c 2 -a 0 -i 20 -k RTR
+ -t 15.092259593 -s 1 -d 0 -p DSR -e 76 -c 2 -a 0 -i 16 -k RTR 
- -t 15.092259593 -s 1 -d 0 -p DSR -e 76 -c 2 -a 0 -i 16 -k RTR
h -t 15.092259593 -s 1 -d 0 -p DSR -e 76 -c 2 -a 0 -i 16 -k RTR
+ -t 15.092981494 -s 19 -d 21 -p DSR -e 68 -c 2 -a 0 -i 19 -k RTR 
- -t 15.092981494 -s 19 -d 21 -p DSR -e 68 -c 2 -a 0 -i 19 -k RTR
h -t 15.092981494 -s 19 -d 21 -p DSR -e 68 -c 2 -a 0 -i 19 -k RTR
r -t 15.099212593 -s 25 -d 25 -p cbr -e 512 -c 2 -a 0 -i 17 -k AGT
+ -t 15.101234753 -s 23 -d 3 -p DSR -e 68 -c 2 -a 0 -i 14 -k RTR 
- -t 15.101234753 -s 23 -d 3 -p DSR -e 68 -c 2 -a 0 -i 14 -k RTR
h -t 15.101234753 -s 23 -d 3 -p DSR -e 68 -c 2 -a 0 -i 14 -k RTR
+ -t 15.103317322 -s 26 -d 1 -p DSR -e 68 -c 2 -a 0 -i 18 -k RTR 
- -t 15.103317322 -s 26 -d 1 -p DSR -e 68 -c 2 -a 0 -i 18 -k RTR
h -t 15.103317322 -s 26 -d 1 -p DSR -e 68 -c 2 -a 0 -i 18 -k RTR
+ -t 15.105287907 -s 7 -d -1 -p DSR -e 48 -c 2 -a 0 -i 15 -k RTR 
- -t 15.105287907 -s 7 -d -1 -p DSR -e 48 -c 2 -a 0 -i 15 -k RTR
h -t 15.105287907 -s 7 -d -1 -p DSR -e 48 -c 2 -a 0 -i 15 -k RTR
+ -t 15.105373053 -s 2 -d -1 -p DSR -e 48 -c 2 -a 0 -i 15 -k RTR 
- -t 15.105373053 -s 2 -d -1 -p DSR -e 48 -c 2 -a 0 -i 15 -k RTR
h -t 15.105373053 -s 2 -d -1 -p DSR -e 48 -c 2 -a 0 -i 15 -k RTR
+ -t 15.106391426 -s 26 -d -1 -p DSR -e 48 -c 2 -a 0 -i 15 -k RTR 
- -t 15.106391426 -s 26 -d -1 -p DSR -e 48 -c 2 -a 0 -i 15 -k RTR
h -t 15.106391426 -s 26 -d -1 -p DSR -e 48 -c 2 -a 0 -i 15 -k RTR
+ -t 15.106431462 -s 1 -d 0 -p DSR -e 68 -c 2 -a 0 -i 18 -k RTR 
- -t 15.106431462 -s 1 -d 0 -p DSR -e 68 -c 2 -a 0 -i 18 -k RTR
h -t 15.106431462 -s 1 -d 0 -p DSR -e 68 -c 2 -a 0 -i 18 -k RTR
+ -t 15.107528703 -s 3 -d -1 -p DSR -e 48 -c 2 -a 0 -i 15 -k RTR 
- -t 15.107528703 -s 3 -d -1 -p DSR -e 48 -c 2 -a 0 -i 15 -k RTR
h -t 15.107528703 -s 3 -d -1 -p DSR -e 48 -c 2 -a 0 -i 15 -k RTR
+ -t 15.108232140 -s 4 -d -1 -p DSR -e 48 -c 2 -a 0 -i 15 -k RTR 
- -t 15.108232140 -s 4 -d -1 -p DSR -e 48 -c 2 -a 0 -i 15 -k RTR
h -t 15.108232140 -s 4 -d -1 -p DSR -e 48 -c 2 -a 0 -i 15 -k RTR
+ -t 15.108712817 -s 25 -d -1 -p DSR -e 48 -c 2 -a 0 -i 15 -k RTR 
- -t 15.108712817 -s 25 -d -1 -p DSR -e 48 -c 2 -a 0 -i 15 -k RTR
h -t 15.108712817 -s 25 -d -1 -p DSR -e 48 -c 2 -a 0 -i 15 -k RTR
+ -t 15.109988425 -s 15 -d 23 -p DSR -e 68 -c 2 -a 0 -i 12 -k RTR 
- -t 15.109988425 -s 15 -d 23 -p DSR -e 68 -c 2 -a 0 -i 12 -k RTR
h -t 15.109988425 -s 15 -d 23 -p DSR -e 68 -c 2 -a 0 -i 12 -k RTR
+ -t 15.110377974 -s 24 -d -1 -p DSR -e 48 -c 2 -a 0 -i 15 -k RTR 
- -t 15.110377974 -s 24 -d -1 -p DSR -e 48 -c 2 -a 0 -i 15 -k RTR
h -t 15.110377974 -s 24 -d -1 -p DSR -e 48 -c 2 -a 0 -i 15 -k RTR
+ -t 15.110891157 -s 8 -d -1 -p DSR -e 68 -c 2 -a 0 -i 15 -k RTR 
- -t 15.110891157 -s 8 -d -1 -p DSR -e 68 -c 2 -a 0 -i 15 -k RTR
h -t 15.110891157 -s 8 -d -1 -p DSR -e 68 -c 2 -a 0 -i 15 -k RTR
+ -t 15.111192199 -s 22 -d -1 -p DSR -e 68 -c 2 -a 0 -i 15 -k RTR 
- -t 15.111192199 -s 22 -d -1 -p DSR -e 68 -c 2 -a 0 -i 15 -k RTR
h -t 15.111192199 -s 22 -d -1 -p DSR -e 68 -c 2 -a 0 -i 15 -k RTR
+ -t 15.111990661 -s 23 -d 3 -p DSR -e 68 -c 2 -a 0 -i 12 -k RTR 
- -t 15.111990661 -s 23 -d 3 -p DSR -e 68 -c 2 -a 0 -i 12 -k RTR
h -t 15.111990661 -s 23 -d 3 -p DSR -e 68 -c 2 -a 0 -i 12 -k RTR
+ -t 15.113027419 -s 0 -d -1 -p DSR -e 48 -c 2 -a 0 -i 15 -k RTR 
- -t 15.113027419 -s 0 -d -1 -p DSR -e 48 -c 2 -a 0 -i 15 -k RTR
h -t 15.113027419 -s 0 -d -1 -p DSR -e 48 -c 2 -a 0 -i 15 -k RTR
+ -t 15.113911673 -s 11 -d -1 -p DSR -e 68 -c 2 -a 0 -i 15 -k RTR 
- -t 15.113911673 -s 11 -d -1 -p DSR -e 68 -c 2 -a 0 -i 15 -k RTR
h -t 15.113911673 -s 11 -d -1 -p DSR -e 68 -c 2 -a 0 -i 15 -k RTR
+ -t 15.114012327 -s 21 -d 23 -p DSR -e 68 -c 2 -a 0 -i 19 -k RTR 
- -t 15.114012327 -s 21 -d 23 -p DSR -e 68 -c 2 -a 0 -i 19 -k RTR
h -t 15.114012327 -s 21 -d 23 -p DSR -e 68 -c 2 -a 0 -i 19 -k RTR
+ -t 15.114367276 -s 10 -d -1 -p DSR -e 68 -c 2 -a 0 -i 15 -k RTR 
- -t 15.114367276 -s 10 -d -1 -p DSR -e 68 -c 2 -a 0 -i 15 -k RTR
h -t 15.114367276 -s 10 -d -1 -p DSR -e 68 -c 2 -a 0 -i 15 -k RTR
+ -t 15.114507438 -s 5 -d -1 -p DSR -e 48 -c 2 -a 0 -i 15 -k RTR 
- -t 15.114507438 -s 5 -d -1 -p DSR -e 48 -c 2 -a 0 -i 15 -k RTR
h -t 15.114507438 -s 5 -d -1 -p DSR -e 48 -c 2 -a 0 -i 15 -k RTR
+ -t 15.116024702 -s 9 -d 3 -p DSR -e 60 -c 2 -a 0 -i 23 -k RTR 
- -t 15.116024702 -s 9 -d 3 -p DSR -e 60 -c 2 -a 0 -i 23 -k RTR
h -t 15.116024702 -s 9 -d 3 -p DSR -e 60 -c 2 -a 0 -i 23 -k RTR
+ -t 15.116024780 -s 23 -d 3 -p DSR -e 56 -c 2 -a 0 -i 24 -k RTR 
- -t 15.116024780 -s 23 -d 3 -p DSR -e 56 -c 2 -a 0 -i 24 -k RTR
h -t 15.116024780 -s 23 -d 3 -p DSR -e 56 -c 2 -a 0 -i 24 -k RTR
+ -t 15.117816780 -s 0 -d 1 -p cbr -e 564 -c 2 -a 0 -i 0 -k RTR 
- -t 15.117816780 -s 0 -d 1 -p cbr -e 564 -c 2 -a 0 -i 0 -k RTR
h -t 15.117816780 -s 0 -d 1 -p cbr -e 564 -c 2 -a 0 -i 0 -k RTR
+ -t 15.119463063 -s 6 -d -1 -p DSR -e 68 -c 2 -a 0 -i 15 -k RTR 
- -t 15.119463063 -s 6 -d -1 -p DSR -e 68 -c 2 -a 0 -i 15 -k RTR
h -t 15.119463063 -s 6 -d -1 -p DSR -e 68 -c 2 -a 0 -i 15 -k RTR
+ -t 15.120132526 -s 13 -d 10 -p DSR -e 68 -c 2 -a 0 -i 25 -k RTR 
- -t 15.120132526 -s 13 -d 10 -p DSR -e 68 -c 2 -a 0 -i 25 -k RTR
h -t 15.120132526 -s 13 -d 10 -p DSR -e 68 -c 2 -a 0 -i 25 -k RTR
+ -t 15.120132664 -s 20 -d 10 -p DSR -e 68 -c 2 -a 0 -i 27 -k RTR 
- -t 15.120132664 -s 20 -d 10 -p DSR -e 68 -c 2 -a 0 -i 27 -k RTR
h -t 15.120132664 -s 20 -d 10 -p DSR -e 68 -c 2 -a 0 -i 27 -k RTR
+ -t 15.120132859 -s 16 -d 10 -p DSR -e 68 -c 2 -a 0 -i 28 -k RTR 
- -t 15.120132859 -s 16 -d 10 -p DSR -e 68 -c 2 -a 0 -i 28 -k RTR
h -t 15.120132859 -s 16 -d 10 -p DSR -e 68 -c 2 -a 0 -i 28 -k RTR
+ -t 15.120132938 -s 19 -d 10 -p DSR -e 64 -c 2 -a 0 -i 29 -k RTR 
- -t 15.120132938 -s 19 -d 10 -p DSR -e 64 -c 2 -a 0 -i 29 -k RTR
h -t 15.120132938 -s 19 -d 10 -p DSR -e 64 -c 2 -a 0 -i 29 -k RTR
+ -t 15.120132938 -s 12 -d 10 -p DSR -e 68 -c 2 -a 0 -i 30 -k RTR 
- -t 15.120132938 -s 12 -d 10 -p DSR -e 68 -c 2 -a 0 -i 30 -k RTR
h -t 15.120132938 -s 12 -d 10 -p DSR -e 68 -c 2 -a 0 -i 30 -k RTR
+ -t 15.120132938 -s 18 -d 10 -p DSR -e 68 -c 2 -a 0 -i 31 -k RTR 
- -t 15.120132938 -s 18 -d 10 -p DSR -e 68 -c 2 -a 0 -i 31 -k RTR
h -t 15.120132938 -s 18 -d 10 -p DSR -e 68 -c 2 -a 0 -i 31 -k RTR
+ -t 15.124872745 -s 17 -d -1 -p DSR -e 92 -c 2 -a 0 -i 15 -k RTR 
- -t 15.124872745 -s 17 -d -1 -p DSR -e 92 -c 2 -a 0 -i 15 -k RTR
h -t 15.124872745 -s 17 -d -1 -p DSR -e 92 -c 2 -a 0 -i 15 -k RTR
+ -t 15.125575216 -s 10 -d 26 -p DSR -e 68 -c 2 -a 0 -i 27 -k RTR 
- -t 15.125575216 -s 10 -d 26 -p DSR -e 68 -c 2 -a 0 -i 27 -k RTR
h -t 15.125575216 -s 10 -d 26 -p DSR -e 68 -c 2 -a 0 -i 27 -k RTR
+ -t 15.126622589 -s 21 -d 10 -p DSR -e 60 -c 2 -a 0 -i 26 -k RTR 
- -t 15.126622589 -s 21 -d 10 -p DSR -e 60 -c 2 -a 0 -i 26 -k RTR
h -t 15.126622589 -s 21 -d 10 -p DSR -e 60 -c 2 -a 0 -i 26 -k RTR
+ -t 15.126968605 -s 14 -d -1 -p DSR -e 92 -c 2 -a 0 -i 15 -k RTR 
- -t 15.126968605 -s 14 -d -1 -p DSR -e 92 -c 2 -a 0 -i 15 -k RTR
h -t 15.126968605 -s 14 -d -1 -p DSR -e 92 -c 2 -a 0 -i 15 -k RTR
+ -t 15.129969387 -s 0 -d -1 -p cbr -e 512 -c 2 -a 0 -i 32 -k AGT 
- -t 15.129969387 -s 0 -d -1 -p cbr -e 512 -c 2 -a 0 -i 32 -k AGT
h -t 15.129969387 -s 0 -d -1 -p cbr -e 512 -c 2 -a 0 -i 32 -k AGT
+ -t 15.129969387 -s 0 -d 1 -p cbr -e 564 -c 2 -a 0 -i 32 -k RTR 
- -t 15.129969387 -s 0 -d 1 -p cbr -e 564 -c 2 -a 0 -i 32 -k RTR
h -t 15.129969387 -s 0 -d 1 -p cbr -e 564 -c 2 -a 0 -i 32 -k RTR
+ -t 15.136184629 -s 24 -d -1 -p cbr -e 512 -c 2 -a 0 -i 33 -k AGT 
- -t 15.136184629 -s 24 -d -1 -p cbr -e 512 -c 2 -a 0 -i 33 -k AGT
h -t 15.136184629 -s 24 -d -1 -p cbr -e 512 -c 2 -a 0 -i 33 -k AGT
+ -t 15.136184629 -s 24 -d 25 -p cbr -e 548 -c 2 -a 0 -i 33 -k RTR 
- -t 15.136184629 -s 24 -d 25 -p cbr -e 548 -c 2 -a 0 -i 33 -k RTR
h -t 15.136184629 -s 24 -d 25 -p cbr -e 548 -c 2 -a 0 -i 33 -k RTR
+ -t 15.138513909 -s 1 -d 26 -p cbr -e 564 -c 2 -a 0 -i 0 -k RTR 
- -t 15.138513909 -s 1 -d 26 -p cbr -e 564 -c 2 -a 0 -i 0 -k RTR
h -t 15.138513909 -s 1 -d 26 -p cbr -e 564 -c 2 -a 0 -i 0 -k RTR
+ -t 15.146415075 -s 26 -d 22 -p cbr -e 564 -c 2 -a 0 -i 0 -k RTR 
- -t 15.146415075 -s 26 -d 22 -p cbr -e 564 -c 2 -a 0 -i 0 -k RTR
h -t 15.146415075 -s 26 -d 22 -p cbr -e 564 -c 2 -a 0 -i 0 -k RTR
+ -t 15.148527839 -s 26 -d 1 -p DSR -e 68 -c 2 -a 0 -i 27 -k RTR 
- -t 15.148527839 -s 26 -d 1 -p DSR -e 68 -c 2 -a 0 -i 27 -k RTR
h -t 15.148527839 -s 26 -d 1 -p DSR -e 68 -c 2 -a 0 -i 27 -k RTR
+ -t 15.148866357 -s 1 -d -1 -p cbr -e 512 -c 2 -a 0 -i 35 -k AGT 
- -t 15.148866357 -s 1 -d -1 -p cbr -e 512 -c 2 -a 0 -i 35 -k AGT
h -t 15.148866357 -s 1 -d -1 -p cbr -e 512 -c 2 -a 0 -i 35 -k AGT
r -t 15.154450173 -s 25 -d 25 -p cbr -e 512 -c 2 -a 0 -i 33 -k AGT
+ -t 15.156468742 -s 3 -d 0 -p DSR -e 60 -c 2 -a 0 -i 10 -k RTR 
- -t 15.156468742 -s 3 -d 0 -p DSR -e 60 -c 2 -a 0 -i 10 -k RTR
h -t 15.156468742 -s 3 -d 0 -p DSR -e 60 -c 2 -a 0 -i 10 -k RTR
+ -t 15.158427409 -s 3 -d 1 -p DSR -e 60 -c 2 -a 0 -i 23 -k RTR 
- -t 15.158427409 -s 3 -d 1 -p DSR -e 60 -c 2 -a 0 -i 23 -k RTR
h -t 15.158427409 -s 3 -d 1 -p DSR -e 60 -c 2 -a 0 -i 23 -k RTR
+ -t 15.164487742 -s 1 -d 26 -p cbr -e 564 -c 2 -a 0 -i 32 -k RTR 
- -t 15.164487742 -s 1 -d 26 -p cbr -e 564 -c 2 -a 0 -i 32 -k RTR
h -t 15.164487742 -s 1 -d 26 -p cbr -e 564 -c 2 -a 0 -i 32 -k RTR
+ -t 15.170517156 -s 26 -d 22 -p cbr -e 564 -c 2 -a 0 -i 32 -k RTR 
- -t 15.170517156 -s 26 -d 22 -p cbr -e 564 -c 2 -a 0 -i 32 -k RTR
h -t 15.170517156 -s 26 -d 22 -p cbr -e 564 -c 2 -a 0 -i 32 -k RTR
+ -t 15.176827156 -s 22 -d 18 -p cbr -e 564 -c 2 -a 0 -i 0 -k RTR 
- -t 15.176827156 -s 22 -d 18 -p cbr -e 564 -c 2 -a 0 -i 0 -k RTR
h -t 15.176827156 -s 22 -d 18 -p cbr -e 564 -c 2 -a 0 -i 0 -k RTR
+ -t 15.182837156 -s 18 -d 19 -p cbr -e 564 -c 2 -a 0 -i 0 -k RTR 
- -t 15.182837156 -s 18 -d 19 -p cbr -e 564 -c 2 -a 0 -i 0 -k RTR
h -t 15.182837156 -s 18 -d 19 -p cbr -e 564 -c 2 -a 0 -i 0 -k RTR
+ -t 15.185088847 -s 12 -d 23 -p DSR -e 68 -c 2 -a 0 -i 20 -k RTR 
- -t 15.185088847 -s 12 -d 23 -p DSR -e 68 -c 2 -a 0 -i 20 -k RTR
h -t 15.185088847 -s 12 -d 23 -p DSR -e 68 -c 2 -a 0 -i 20 -k RTR
+ -t 15.188057982 -s 1 -d 26 -p cbr -e 564 -c 2 -a 0 -i 2 -k RTR 
- -t 15.188057982 -s 1 -d 26 -p cbr -e 564 -c 2 -a 0 -i 2 -k RTR
h -t 15.188057982 -s 1 -d 26 -p cbr -e 564 -c 2 -a 0 -i 2 -k RTR
+ -t 15.194107396 -s 26 -d 10 -p cbr -e 564 -c 2 -a 0 -i 2 -k RTR 
- -t 15.194107396 -s 26 -d 10 -p cbr -e 564 -c 2 -a 0 -i 2 -k RTR
h -t 15.194107396 -s 26 -d 10 -p cbr -e 564 -c 2 -a 0 -i 2 -k RTR
+ -t 15.200157396 -s 22 -d 18 -p cbr -e 564 -c 2 -a 0 -i 32 -k RTR 
- -t 15.200157396 -s 22 -d 18 -p cbr -e 564 -c 2 -a 0 -i 32 -k RTR
h -t 15.200157396 -s 22 -d 18 -p cbr -e 564 -c 2 -a 0 -i 32 -k RTR
+ -t 15.206248299 -s 10 -d 20 -p cbr -e 564 -c 2 -a 0 -i 2 -k RTR 
- -t 15.206248299 -s 10 -d 20 -p cbr -e 564 -c 2 -a 0 -i 2 -k RTR
h -t 15.206248299 -s 10 -d 20 -p cbr -e 564 -c 2 -a 0 -i 2 -k RTR
+ -t 15.208224732 -s 3 -d 1 -p DSR -e 56 -c 2 -a 0 -i 24 -k RTR 
- -t 15.208224732 -s 3 -d 1 -p DSR -e 56 -c 2 -a 0 -i 24 -k RTR
h -t 15.208224732 -s 3 -d 1 -p DSR -e 56 -c 2 -a 0 -i 24 -k RTR
+ -t 15.210407714 -s 3 -d 0 -p DSR -e 68 -c 2 -a 0 -i 12 -k RTR 
- -t 15.210407714 -s 3 -d 0 -p DSR -e 68 -c 2 -a 0 -i 12 -k RTR
h -t 15.210407714 -s 3 -d 0 -p DSR -e 68 -c 2 -a 0 -i 12 -k RTR
+ -t 15.218057982 -s 1 -d 26 -p cbr -e 564 -c 2 -a 0 -i 35 -k RTR 
- -t 15.218057982 -s 1 -d 26 -p cbr -e 564 -c 2 -a 0 -i 35 -k RTR
h -t 15.218057982 -s 1 -d 26 -p cbr -e 564 -c 2 -a 0 -i 35 -k RTR
+ -t 15.221697972 -s 23 -d 3 -p DSR -e 68 -c 2 -a 0 -i 19 -k RTR 
- -t 15.221697972 -s 23 -d 3 -p DSR -e 68 -c 2 -a 0 -i 19 -k RTR
h -t 15.221697972 -s 23 -d 3 -p DSR -e 68 -c 2 -a 0 -i 19 -k RTR
+ -t 15.223768875 -s 10 -d 26 -p DSR -e 64 -c 2 -a 0 -i 29 -k RTR 
- -t 15.223768875 -s 10 -d 26 -p DSR -e 64 -c 2 -a 0 -i 29 -k RTR
h -t 15.223768875 -s 10 -d 26 -p DSR -e 64 -c 2 -a 0 -i 29 -k RTR
+ -t 15.225811444 -s 3 -d 0 -p DSR -e 68 -c 2 -a 0 -i 14 -k RTR 
- -t 15.225811444 -s 3 -d 0 -p DSR -e 68 -c 2 -a 0 -i 14 -k RTR
h -t 15.225811444 -s 3 -d 0 -p DSR -e 68 -c 2 -a 0 -i 14 -k RTR
+ -t 15.232031167 -s 26 -d 10 -p cbr -e 564 -c 2 -a 0 -i 35 -k RTR 
- -t 15.232031167 -s 26 -d 10 -p cbr -e 564 -c 2 -a 0 -i 35 -k RTR
h -t 15.232031167 -s 26 -d 10 -p cbr -e 564 -c 2 -a 0 -i 35 -k RTR
+ -t 15.238046110 -s 21 -d 10 -p DSR -e 60 -c 2 -a 0 -i 39 -k RTR 
- -t 15.238046110 -s 21 -d 10 -p DSR -e 60 -c 2 -a 0 -i 39 -k RTR
h -t 15.238046110 -s 21 -d 10 -p DSR -e 60 -c 2 -a 0 -i 39 -k RTR
+ -t 15.238046384 -s 19 -d 10 -p DSR -e 64 -c 2 -a 0 -i 40 -k RTR 
- -t 15.238046384 -s 19 -d 10 -p DSR -e 64 -c 2 -a 0 -i 40 -k RTR
h -t 15.238046384 -s 19 -d 10 -p DSR -e 64 -c 2 -a 0 -i 40 -k RTR
+ -t 15.238071110 -s 20 -d 19 -p cbr -e 564 -c 2 -a 0 -i 2 -k RTR 
- -t 15.238071110 -s 20 -d 19 -p cbr -e 564 -c 2 -a 0 -i 2 -k RTR
h -t 15.238071110 -s 20 -d 19 -p cbr -e 564 -c 2 -a 0 -i 2 -k RTR
+ -t 15.240062092 -s 10 -d 26 -p DSR -e 64 -c 2 -a 0 -i 40 -k RTR 
- -t 15.240062092 -s 10 -d 26 -p DSR -e 64 -c 2 -a 0 -i 40 -k RTR
h -t 15.240062092 -s 10 -d 26 -p DSR -e 64 -c 2 -a 0 -i 40 -k RTR
+ -t 15.242059977 -s 10 -d 26 -p DSR -e 60 -c 2 -a 0 -i 26 -k RTR 
- -t 15.242059977 -s 10 -d 26 -p DSR -e 60 -c 2 -a 0 -i 26 -k RTR
h -t 15.242059977 -s 10 -d 26 -p DSR -e 60 -c 2 -a 0 -i 26 -k RTR
+ -t 15.244102547 -s 3 -d 0 -p DSR -e 68 -c 2 -a 0 -i 19 -k RTR 
- -t 15.244102547 -s 3 -d 0 -p DSR -e 68 -c 2 -a 0 -i 19 -k RTR
h -t 15.244102547 -s 3 -d 0 -p DSR -e 68 -c 2 -a 0 -i 19 -k RTR
+ -t 15.246185528 -s 3 -d 0 -p DSR -e 68 -c 2 -a 0 -i 11 -k RTR 
- -t 15.246185528 -s 3 -d 0 -p DSR -e 68 -c 2 -a 0 -i 11 -k RTR
h -t 15.246185528 -s 3 -d 0 -p DSR -e 68 -c 2 -a 0 -i 11 -k RTR
+ -t 15.246588090 -s 0 -d -1 -p cbr -e 512 -c 2 -a 0 -i 41 -k AGT 
- -t 15.246588090 -s 0 -d -1 -p cbr -e 512 -c 2 -a 0 -i 41 -k AGT
h -t 15.246588090 -s 0 -d -1 -p cbr -e 512 -c 2 -a 0 -i 41 -k AGT
+ -t 15.246588090 -s 0 -d 3 -p cbr -e 556 -c 2 -a 0 -i 41 -k RTR 
- -t 15.246588090 -s 0 -d 3 -p cbr -e 556 -c 2 -a 0 -i 41 -k RTR
h -t 15.246588090 -s 0 -d 3 -p cbr -e 556 -c 2 -a 0 -i 41 -k RTR
+ -t 15.253856026 -s 1 -d -1 -p cbr -e 512 -c 2 -a 0 -i 42 -k AGT 
- -t 15.253856026 -s 1 -d -1 -p cbr -e 512 -c 2 -a 0 -i 42 -k AGT
h -t 15.253856026 -s 1 -d -1 -p cbr -e 512 -c 2 -a 0 -i 42 -k AGT
+ -t 15.253856026 -s 1 -d 3 -p cbr -e 556 -c 2 -a 0 -i 42 -k RTR 
- -t 15.253856026 -s 1 -d 3 -p cbr -e 556 -c 2 -a 0 -i 42 -k RTR
h -t 15.253856026 -s 1 -d 3 -p cbr -e 556 -c 2 -a 0 -i 42 -k RTR
+ -t 15.254611528 -s 3 -d 23 -p cbr -e 556 -c 2 -a 0 -i 41 -k RTR 
- -t 15.254611528 -s 3 -d 23 -p cbr -e 556 -c 2 -a 0 -i 41 -k RTR
h -t 15.254611528 -s 3 -d 23 -p cbr -e 556 -c 2 -a 0 -i 41 -k RTR
+ -t 15.260638509 -s 3 -d 23 -p cbr -e 556 -c 2 -a 0 -i 42 -k RTR 
- -t 15.260638509 -s 3 -d 23 -p cbr -e 556 -c 2 -a 0 -i 42 -k RTR
h -t 15.260638509 -s 3 -d 23 -p cbr -e 556 -c 2 -a 0 -i 42 -k RTR
+ -t 15.265086800 -s 3 -d 0 -p DSR -e 68 -c 2 -a 0 -i 13 -k RTR 
- -t 15.265086800 -s 3 -d 0 -p DSR -e 68 -c 2 -a 0 -i 13 -k RTR
h -t 15.265086800 -s 3 -d 0 -p DSR -e 68 -c 2 -a 0 -i 13 -k RTR
+ -t 15.273663702 -s 19 -d 21 -p cbr -e 564 -c 2 -a 0 -i 2 -k RTR 
- -t 15.273663702 -s 19 -d 21 -p cbr -e 564 -c 2 -a 0 -i 2 -k RTR
h -t 15.273663702 -s 19 -d 21 -p cbr -e 564 -c 2 -a 0 -i 2 -k RTR
+ -t 15.280241970 -s 24 -d -1 -p cbr -e 512 -c 2 -a 0 -i 43 -k AGT 
- -t 15.280241970 -s 24 -d -1 -p cbr -e 512 -c 2 -a 0 -i 43 -k AGT
h -t 15.280241970 -s 24 -d -1 -p cbr -e 512 -c 2 -a 0 -i 43 -k AGT
+ -t 15.280241970 -s 24 -d 25 -p cbr -e 532 -c 2 -a 0 -i 43 -k RTR 
- -t 15.280241970 -s 24 -d 25 -p cbr -e 532 -c 2 -a 0 -i 43 -k RTR
h -t 15.280241970 -s 24 -d 25 -p cbr -e 532 -c 2 -a 0 -i 43 -k RTR
+ -t 15.284134397 -s 18 -d 19 -p cbr -e 564 -c 2 -a 0 -i 32 -k RTR 
- -t 15.284134397 -s 18 -d 19 -p cbr -e 564 -c 2 -a 0 -i 32 -k RTR
h -t 15.284134397 -s 18 -d 19 -p cbr -e 564 -c 2 -a 0 -i 32 -k RTR
+ -t 15.286152557 -s 10 -d 26 -p DSR -e 60 -c 2 -a 0 -i 39 -k RTR 
- -t 15.286152557 -s 10 -d 26 -p DSR -e 60 -c 2 -a 0 -i 39 -k RTR
h -t 15.286152557 -s 10 -d 26 -p DSR -e 60 -c 2 -a 0 -i 39 -k RTR
+ -t 15.288142793 -s 26 -d 1 -p DSR -e 64 -c 2 -a 0 -i 29 -k RTR 
- -t 15.288142793 -s 26 -d 1 -p DSR -e 64 -c 2 -a 0 -i 29 -k RTR
h -t 15.288142793 -s 26 -d 1 -p DSR -e 64 -c 2 -a 0 -i 29 -k RTR
+ -t 15.290281774 -s 26 -d 1 -p DSR -e 60 -c 2 -a 0 -i 39 -k RTR 
- -t 15.290281774 -s 26 -d 1 -p DSR -e 60 -c 2 -a 0 -i 39 -k RTR
h -t 15.290281774 -s 26 -d 1 -p DSR -e 60 -c 2 -a 0 -i 39 -k RTR
+ -t 15.296312010 -s 10 -d 20 -p cbr -e 564 -c 2 -a 0 -i 35 -k RTR 
- -t 15.296312010 -s 10 -d 20 -p cbr -e 564 -c 2 -a 0 -i 35 -k RTR
h -t 15.296312010 -s 10 -d 20 -p cbr -e 564 -c 2 -a 0 -i 35 -k RTR
r -t 15.305703026 -s 21 -d 21 -p cbr -e 512 -c 2 -a 0 -i 2 -k AGT
+ -t 15.307805596 -s 10 -d 26 -p DSR -e 68 -c 2 -a 0 -i 30 -k RTR 
- -t 15.307805596 -s 10 -d 26 -p DSR -e 68 -c 2 -a 0 -i 30 -k RTR
h -t 15.307805596 -s 10 -d 26 -p DSR -e 68 -c 2 -a 0 -i 30 -k RTR
+ -t 15.310805093 -s 23 -d 3 -p DSR -e 68 -c 2 -a 0 -i 20 -k RTR 
- -t 15.310805093 -s 23 -d 3 -p DSR -e 68 -c 2 -a 0 -i 20 -k RTR
h -t 15.310805093 -s 23 -d 3 -p DSR -e 68 -c 2 -a 0 -i 20 -k RTR
+ -t 15.312827329 -s 3 -d 0 -p DSR -e 68 -c 2 -a 0 -i 20 -k RTR 
- -t 15.312827329 -s 3 -d 0 -p DSR -e 68 -c 2 -a 0 -i 20 -k RTR
h -t 15.312827329 -s 3 -d 0 -p DSR -e 68 -c 2 -a 0 -i 20 -k RTR
+ -t 15.318813565 -s 23 -d 19 -p cbr -e 556 -c 2 -a 0 -i 41 -k RTR 
- -t 15.318813565 -s 23 -d 19 -p cbr -e 556 -c 2 -a 0 -i 41 -k RTR
h -t 15.318813565 -s 23 -d 19 -p cbr -e 556 -c 2 -a 0 -i 41 -k RTR