Sconfig 0.00000 tap: on snoop: rts? on errs? on
Sconfig 0.00000 salvage: on !bd replies? on
Sconfig 0.00000 grat error: on grat reply: on
Sconfig 0.00000 $reply for props: on ring 0 search: on
Sconfig 0.00000 using MOBICACHE
s 15.000000000 _0_ AGT  --- 0 cbr 512 [0 0 0 0] ------- [0:0 16:0 32 0] [0] 0 0
r 15.000000000 _0_ RTR  --- 0 cbr 512 [0 0 0 0] ------- [0:0 16:0 32 0] [0] 0 0
s 15.005505108 _0_ RTR  --- 1 DSR 32 [0 0 0 0] ------- [0:255 16:255 32 0] 1 [1 1] [0 1 0 0->0] [0 0 0 0->0]
r 15.006597441 _3_ RTR  --- 1 DSR 32 [0 ffffffff 0 800] ------- [0:255 16:255 32 0] 1 [1 1] [0 1 0 0->0] [0 0 0 0->0]
r 15.006597775 _6_ RTR  --- 1 DSR 32 [0 ffffffff 0 800] ------- [0:255 16:255 32 0] 1 [1 1] [0 1 0 0->0] [0 0 0 0->0]
r 15.006597775 _1_ RTR  --- 1 DSR 32 [0 ffffffff 0 800] ------- [0:255 16:255 32 0] 1 [1 1] [0 1 0 0->0] [0 0 0 0->0]
r 15.006597853 _4_ RTR  --- 1 DSR 32 [0 ffffffff 0 800] ------- [0:255 16:255 32 0] 1 [1 1] [0 1 0 0->0] [0 0 0 0->0]
s 15.057418555 _0_ AGT  --- 4 cbr 512 [0 0 0 0] ------- [0:0 16:0 32 0] [1] 0 0
r 15.057418555 _0_ RTR  --- 4 cbr 512 [0 0 0 0] ------- [0:0 16:0 32 0] [1] 0 0
s 15.061917794 _0_ RTR  --- 3 DSR 32 [0 0 0 0] ------- [0:255 16:255 32 0] 1 [1 2] [0 2 0 0->16] [0 0 0 0->0]
r 15.062750127 _3_ RTR  --- 3 DSR 32 [0 ffffffff 0 800] ------- [0:255 16:255 32 0] 1 [1 2] [0 2 0 0->16] [0 0 0 0->0]
r 15.062750461 _6_ RTR  --- 3 DSR 32 [0 ffffffff 0 800] ------- [0:255 16:255 32 0] 1 [1 2] [0 2 0 0->16] [0 0 0 0->0]
r 15.062750461 _1_ RTR  --- 3 DSR 32 [0 ffffffff 0 800] ------- [0:255 16:255 32 0] 1 [1 2] [0 2 0 0->16] [0 0 0 0->0]
r 15.062750539 _4_ RTR  --- 3 DSR 32 [0 ffffffff 0 800] ------- [0:255 16:255 32 0] 1 [1 2] [0 2 0 0->16] [0 0 0 0->0]
f 15.063691288 _3_ RTR  --- 3 DSR 48 [0 ffffffff 0 800] ------- [0:255 16:255 32 0] 2 [1 2] [0 2 0 0->16] [0 0 0 0->0]
f 15.064305680 _6_ RTR  --- 3 DSR 48 [0 ffffffff 0 800] ------- [0:255 16:255 32 0] 2 [1 2] [0 2 0 0->16] [0 0 0 0->0]
r 15.064591621 _0_ RTR  --- 3 DSR 48 [0 ffffffff 3 800] ------- [0:255 16:255 32 0] 2 [1 2] [0 2 0 0->16] [0 0 0 0->0]
r 15.064591621 _6_ RTR  --- 3 DSR 48 [0 ffffffff 3 800] ------- [0:255 16:255 32 0] 2 [1 2] [0 2 0 0->16] [0 0 0 0->0]
r 15.064591954 _9_ RTR  --- 3 DSR 48 [0 ffffffff 3 800] ------- [0:255 16:255 32 0] 2 [1 2] [0 2 0 0->16] [0 0 0 0->0]
r 15.064591954 _4_ RTR  --- 3 DSR 48 [0 ffffffff 3 800] ------- [0:255 16:255 32 0] 2 [1 2] [0 2 0 0->16] [0 0 0 0->0]
r 15.064592033 _23_ RTR  --- 3 DSR 48 [0 ffffffff 3 800] ------- [0:255 16:255 32 0] 2 [1 2] [0 2 0 0->16] [0 0 0 0->0]
r 15.064592033 _1_ RTR  --- 3 DSR 48 [0 ffffffff 3 800] ------- [0:255 16:255 32 0] 2 [1 2] [0 2 0 0->16] [0 0 0 0->0]
r 15.064592033 _7_ RTR  --- 3 DSR 48 [0 ffffffff 3 800] ------- [0:255 16:255 32 0] 2 [1 2] [0 2 0 0->16] [0 0 0 0->0]
r 15.065961954 _3_ RTR  --- 3 DSR 48 [0 ffffffff 6 800] ------- [0:255 16:255 32 0] 2 [1 2] [0 2 0 0->16] [0 0 0 0->0]
r 15.065961954 _9_ RTR  --- 3 DSR 48 [0 ffffffff 6 800] ------- [0:255 16:255 32 0] 2 [1 2] [0 2 0 0->16] [0 0 0 0->0]
r 15.065962092 _23_ RTR  --- 3 DSR 48 [0 ffffffff 6 800] ------- [0:255 16:255 32 0] 2 [1 2] [0 2 0 0->16] [0 0 0 0->0]
r 15.065962288 _0_ RTR  --- 3 DSR 48 [0 ffffffff 6 800] ------- [0:255 16:255 32 0] 2 [1 2] [0 2 0 0->16] [0 0 0 0->0]
r 15.065962288 _12_ RTR  --- 3 DSR 48 [0 ffffffff 6 800] ------- [0:255 16:255 32 0] 2 [1 2] [0 2 0 0->16] [0 0 0 0->0]
r 15.065962288 _7_ RTR  --- 3 DSR 48 [0 ffffffff 6 800] ------- [0:255 16:255 32 0] 2 [1 2] [0 2 0 0->16] [0 0 0 0->0]
r 15.065962366 _21_ RTR  --- 3 DSR 48 [0 ffffffff 6 800] ------- [0:255 16:255 32 0] 2 [1 2] [0 2 0 0->16] [0 0 0 0->0]
r 15.065962366 _4_ RTR  --- 3 DSR 48 [0 ffffffff 6 800] ------- [0:255 16:255 32 0] 2 [1 2] [0 2 0 0->16] [0 0 0 0->0]
r 15.065962366 _10_ RTR  --- 3 DSR 48 [0 ffffffff 6 800] ------- [0:255 16:255 32 0] 2 [1 2] [0 2 0 0->16] [0 0 0 0->0]
f 15.065997446 _4_ RTR  --- 3 DSR 48 [0 ffffffff 0 800] ------- [0:255 16:255 32 0] 2 [1 2] [0 2 0 0->16] [0 0 0 0->0]
r 15.067217779 _1_ RTR  --- 3 DSR 48 [0 ffffffff 4 800] ------- [0:255 16:255 32 0] 2 [1 2] [0 2 0 0->16] [0 0 0 0->0]
r 15.067217779 _7_ RTR  --- 3 DSR 48 [0 ffffffff 4 800] ------- [0:255 16:255 32 0] 2 [1 2] [0 2 0 0->16] [0 0 0 0->0]
r 15.067218113 _3_ RTR  --- 3 DSR 48 [0 ffffffff 4 800] ------- [0:255 16:255 32 0] 2 [1 2] [0 2 0 0->16] [0 0 0 0->0]
r 15.067218113 _10_ RTR  --- 3 DSR 48 [0 ffffffff 4 800] ------- [0:255 16:255 32 0] 2 [1 2] [0 2 0 0->16] [0 0 0 0->0]
r 15.067218113 _5_ RTR  --- 3 DSR 48 [0 ffffffff 4 800] ------- [0:255 16:255 32 0] 2 [1 2] [0 2 0 0->16] [0 0 0 0->0]
r 15.067218191 _23_ RTR  --- 3 DSR 48 [0 ffffffff 4 800] ------- [0:255 16:255 32 0] 2 [1 2] [0 2 0 0->16] [0 0 0 0->0]
r 15.067218191 _6_ RTR  --- 3 DSR 48 [0 ffffffff 4 800] ------- [0:255 16:255 32 0] 2 [1 2] [0 2 0 0->16] [0 0 0 0->0]
r 15.067218191 _0_ RTR  --- 3 DSR 48 [0 ffffffff 4 800] ------- [0:255 16:255 32 0] 2 [1 2] [0 2 0 0->16] [0 0 0 0->0]
r 15.067218191 _22_ RTR  --- 3 DSR 48 [0 ffffffff 4 800] ------- [0:255 16:255 32 0] 2 [1 2] [0 2 0 0->16] [0 0 0 0->0]
r 15.067218191 _2_ RTR  --- 3 DSR 48 [0 ffffffff 4 800] ------- [0:255 16:255 32 0] 2 [1 2] [0 2 0 0->16] [0 0 0 0->0]
r 15.067218191 _8_ RTR  --- 3 DSR 48 [0 ffffffff 4 800] ------- [0:255 16:255 32 0] 2 [1 2] [0 2 0 0->16] [0 0 0 0->0]
f 15.069400564 _21_ RTR  --- 3 DSR 68 [0 ffffffff 6 800] ------- [0:255 16:255 32 0] 3 [1 2] [0 2 0 0->16] [0 0 0 0->0]
f 15.069689983 _10_ RTR  --- 3 DSR 68 [0 ffffffff 6 800] ------- [0:255 16:255 32 0] 3 [1 2] [0 2 0 0->16] [0 0 0 0->0]
f 15.069758033 _2_ RTR  --- 3 DSR 68 [0 ffffffff 4 800] ------- [0:255 16:255 32 0] 3 [1 2] [0 2 0 0->16] [0 0 0 0->0]
f 15.069920935 _1_ RTR  --- 3 DSR 48 [0 ffffffff 0 800] ------- [0:255 16:255 32 0] 2 [1 2] [0 2 0 0->16] [0 0 0 0->0]
r 15.070520898 _19_ RTR  --- 3 DSR 68 [0 ffffffff 15 800] ------- [0:255 16:255 32 0] 3 [1 2] [0 2 0 0->16] [0 0 0 0->0]
r 15.070520898 _12_ RTR  --- 3 DSR 68 [0 ffffffff 15 800] ------- [0:255 16:255 32 0] 3 [1 2] [0 2 0 0->16] [0 0 0 0->0]
r 15.070520898 _23_ RTR  --- 3 DSR 68 [0 ffffffff 15 800] ------- [0:255 16:255 32 0] 3 [1 2] [0 2 0 0->16] [0 0 0 0->0]
r 15.070520898 _13_ RTR  --- 3 DSR 68 [0 ffffffff 15 800] ------- [0:255 16:255 32 0] 3 [1 2] [0 2 0 0->16] [0 0 0 0->0]
r 15.070521036 _15_ RTR  --- 3 DSR 68 [0 ffffffff 15 800] ------- [0:255 16:255 32 0] 3 [1 2] [0 2 0 0->16] [0 0 0 0->0]
r 15.070521036 _9_ RTR  --- 3 DSR 68 [0 ffffffff 15 800] ------- [0:255 16:255 32 0] 3 [1 2] [0 2 0 0->16] [0 0 0 0->0]
r 15.070521036 _10_ RTR  --- 3 DSR 68 [0 ffffffff 15 800] ------- [0:255 16:255 32 0] 3 [1 2] [0 2 0 0->16] [0 0 0 0->0]
r 15.070521036 _16_ RTR  --- 3 DSR 68 [0 ffffffff 15 800] ------- [0:255 16:255 32 0] 3 [1 2] [0 2 0 0->16] [0 0 0 0->0]
r 15.070521231 _20_ RTR  --- 3 DSR 68 [0 ffffffff 15 800] ------- [0:255 16:255 32 0] 3 [1 2] [0 2 0 0->16] [0 0 0 0->0]
r 15.070521310 _6_ RTR  --- 3 DSR 68 [0 ffffffff 15 800] ------- [0:255 16:255 32 0] 3 [1 2] [0 2 0 0->16] [0 0 0 0->0]
r 15.070521310 _7_ RTR  --- 3 DSR 68 [0 ffffffff 15 800] ------- [0:255 16:255 32 0] 3 [1 2] [0 2 0 0->16] [0 0 0 0->0]
r 15.070521310 _18_ RTR  --- 3 DSR 68 [0 ffffffff 15 800] ------- [0:255 16:255 32 0] 3 [1 2] [0 2 0 0->16] [0 0 0 0->0]
r 15.070521310 _22_ RTR  --- 3 DSR 68 [0 ffffffff 15 800] ------- [0:255 16:255 32 0] 3 [1 2] [0 2 0 0->16] [0 0 0 0->0]
f 15.071410996 _19_ RTR  --- 3 DSR 92 [0 ffffffff 15 800] ------- [0:255 16:255 32 0] 4 [1 2] [0 2 0 0->16] [0 0 0 0->0]
f 15.071749748 _7_ RTR  --- 3 DSR 68 [0 ffffffff 3 800] ------- [0:255 16:255 32 0] 3 [1 2] [0 2 0 0->16] [0 0 0 0->0]
r 15.071916564 _5_ RTR  --- 3 DSR 68 [0 ffffffff 2 800] ------- [0:255 16:255 32 0] 3 [1 2] [0 2 0 0->16] [0 0 0 0->0]
r 15.071916898 _1_ RTR  --- 3 DSR 68 [0 ffffffff 2 800] ------- [0:255 16:255 32 0] 3 [1 2] [0 2 0 0->16] [0 0 0 0->0]
r 15.071916898 _8_ RTR  --- 3 DSR 68 [0 ffffffff 2 800] ------- [0:255 16:255 32 0] 3 [1 2] [0 2 0 0->16] [0 0 0 0->0]
r 15.071916976 _4_ RTR  --- 3 DSR 68 [0 ffffffff 2 800] ------- [0:255 16:255 32 0] 3 [1 2] [0 2 0 0->16] [0 0 0 0->0]
f 15.072938138 _23_ RTR  --- 3 DSR 68 [0 ffffffff 3 800] ------- [0:255 16:255 32 0] 3 [1 2] [0 2 0 0->16] [0 0 0 0->0]
r 15.073003329 _15_ RTR  --- 3 DSR 92 [0 ffffffff 13 800] ------- [0:255 16:255 32 0] 4 [1 2] [0 2 0 0->16] [0 0 0 0->0]
r 15.073003467 _12_ RTR  --- 3 DSR 92 [0 ffffffff 13 800] ------- [0:255 16:255 32 0] 4 [1 2] [0 2 0 0->16] [0 0 0 0->0]
f 15.073179329 _18_ RTR  --- 3 DSR 92 [0 ffffffff 15 800] ------- [0:255 16:255 32 0] 4 [1 2] [0 2 0 0->16] [0 0 0 0->0]
f 15.073852691 _12_ RTR  --- 3 DSR 68 [0 ffffffff 6 800] ------- [0:255 16:255 32 0] 3 [1 2] [0 2 0 0->16] [0 0 0 0->0]
f 15.074004774 _22_ RTR  --- 3 DSR 68 [0 ffffffff 4 800] ------- [0:255 16:255 32 0] 3 [1 2] [0 2 0 0->16] [0 0 0 0->0]
f 15.074066562 _8_ RTR  --- 3 DSR 68 [0 ffffffff 4 800] ------- [0:255 16:255 32 0] 3 [1 2] [0 2 0 0->16] [0 0 0 0->0]
f 15.074307654 _9_ RTR  --- 3 DSR 68 [0 ffffffff 3 800] ------- [0:255 16:255 32 0] 3 [1 2] [0 2 0 0->16] [0 0 0 0->0]
r 15.074398074 _7_ RTR  --- 3 DSR 68 [0 ffffffff a 800] ------- [0:255 16:255 32 0] 3 [1 2] [0 2 0 0->16] [0 0 0 0->0]
r 15.074398074 _23_ RTR  --- 3 DSR 68 [0 ffffffff a 800] ------- [0:255 16:255 32 0] 3 [1 2] [0 2 0 0->16] [0 0 0 0->0]
r 15.074398074 _13_ RTR  --- 3 DSR 68 [0 ffffffff a 800] ------- [0:255 16:255 32 0] 3 [1 2] [0 2 0 0->16] [0 0 0 0->0]
r 15.074398074 _22_ RTR  --- 3 DSR 68 [0 ffffffff a 800] ------- [0:255 16:255 32 0] 3 [1 2] [0 2 0 0->16] [0 0 0 0->0]
r 15.074398213 _21_ RTR  --- 3 DSR 68 [0 ffffffff a 800] ------- [0:255 16:255 32 0] 3 [1 2] [0 2 0 0->16] [0 0 0 0->0]
r 15.074398213 _20_ RTR  --- 3 DSR 68 [0 ffffffff a 800] ------- [0:255 16:255 32 0] 3 [1 2] [0 2 0 0->16] [0 0 0 0->0]
r 15.074398408 _4_ RTR  --- 3 DSR 68 [0 ffffffff a 800] ------- [0:255 16:255 32 0] 3 [1 2] [0 2 0 0->16] [0 0 0 0->0]
r 15.074398408 _9_ RTR  --- 3 DSR 68 [0 ffffffff a 800] ------- [0:255 16:255 32 0] 3 [1 2] [0 2 0 0->16] [0 0 0 0->0]
r 15.074398408 _16_ RTR  --- 3 DSR 68 [0 ffffffff a 800] ------- [0:255 16:255 32 0] 3 [1 2] [0 2 0 0->16] [0 0 0 0->0]
r 15.074398408 _11_ RTR  --- 3 DSR 68 [0 ffffffff a 800] ------- [0:255 16:255 32 0] 3 [1 2] [0 2 0 0->16] [0 0 0 0->0]
r 15.074398486 _19_ RTR  --- 3 DSR 68 [0 ffffffff a 800] ------- [0:255 16:255 32 0] 3 [1 2] [0 2 0 0->16] [0 0 0 0->0]
r 15.074398486 _12_ RTR  --- 3 DSR 68 [0 ffffffff a 800] ------- [0:255 16:255 32 0] 3 [1 2] [0 2 0 0->16] [0 0 0 0->0]
r 15.074398486 _6_ RTR  --- 3 DSR 68 [0 ffffffff a 800] ------- [0:255 16:255 32 0] 3 [1 2] [0 2 0 0->16] [0 0 0 0->0]
r 15.074398486 _18_ RTR  --- 3 DSR 68 [0 ffffffff a 800] ------- [0:255 16:255 32 0] 3 [1 2] [0 2 0 0->16] [0 0 0 0->0]
r 15.074398486 _8_ RTR  --- 3 DSR 68 [0 ffffffff a 800] ------- [0:255 16:255 32 0] 3 [1 2] [0 2 0 0->16] [0 0 0 0->0]
r 15.074398486 _14_ RTR  --- 3 DSR 68 [0 ffffffff a 800] ------- [0:255 16:255 32 0] 3 [1 2] [0 2 0 0->16] [0 0 0 0->0]
f 15.074773158 _15_ RTR  --- 3 DSR 92 [0 ffffffff 15 800] ------- [0:255 16:255 32 0] 4 [1 2] [0 2 0 0->16] [0 0 0 0->0]
r 15.075488820 _9_ RTR  --- 3 DSR 68 [0 ffffffff c 800] ------- [0:255 16:255 32 0] 3 [1 2] [0 2 0 0->16] [0 0 0 0->0]
r 15.075488820 _15_ RTR  --- 3 DSR 68 [0 ffffffff c 800] ------- [0:255 16:255 32 0] 3 [1 2] [0 2 0 0->16] [0 0 0 0->0]
r 15.075488820 _21_ RTR  --- 3 DSR 68 [0 ffffffff c 800] ------- [0:255 16:255 32 0] 3 [1 2] [0 2 0 0->16] [0 0 0 0->0]
r 15.075488958 _19_ RTR  --- 3 DSR 68 [0 ffffffff c 800] ------- [0:255 16:255 32 0] 3 [1 2] [0 2 0 0->16] [0 0 0 0->0]
r 15.075488958 _23_ RTR  --- 3 DSR 68 [0 ffffffff c 800] ------- [0:255 16:255 32 0] 3 [1 2] [0 2 0 0->16] [0 0 0 0->0]
r 15.075489153 _6_ RTR  --- 3 DSR 68 [0 ffffffff c 800] ------- [0:255 16:255 32 0] 3 [1 2] [0 2 0 0->16] [0 0 0 0->0]
r 15.075489153 _13_ RTR  --- 3 DSR 68 [0 ffffffff c 800] ------- [0:255 16:255 32 0] 3 [1 2] [0 2 0 0->16] [0 0 0 0->0]
r 15.075489232 _10_ RTR  --- 3 DSR 68 [0 ffffffff c 800] ------- [0:255 16:255 32 0] 3 [1 2] [0 2 0 0->16] [0 0 0 0->0]
r 15.075489232 _16_ RTR  --- 3 DSR 68 [0 ffffffff c 800] ------- [0:255 16:255 32 0] 3 [1 2] [0 2 0 0->16] [0 0 0 0->0]
r 15.076519153 _6_ RTR  --- 3 DSR 68 [0 ffffffff 9 800] ------- [0:255 16:255 32 0] 3 [1 2] [0 2 0 0->16] [0 0 0 0->0]
r 15.076519153 _12_ RTR  --- 3 DSR 68 [0 ffffffff 9 800] ------- [0:255 16:255 32 0] 3 [1 2] [0 2 0 0->16] [0 0 0 0->0]
r 15.076519153 _23_ RTR  --- 3 DSR 68 [0 ffffffff 9 800] ------- [0:255 16:255 32 0] 3 [1 2] [0 2 0 0->16] [0 0 0 0->0]
r 15.076519291 _21_ RTR  --- 3 DSR 68 [0 ffffffff 9 800] ------- [0:255 16:255 32 0] 3 [1 2] [0 2 0 0->16] [0 0 0 0->0]
r 15.076519486 _3_ RTR  --- 3 DSR 68 [0 ffffffff 9 800] ------- [0:255 16:255 32 0] 3 [1 2] [0 2 0 0->16] [0 0 0 0->0]
r 15.076519486 _15_ RTR  --- 3 DSR 68 [0 ffffffff 9 800] ------- [0:255 16:255 32 0] 3 [1 2] [0 2 0 0->16] [0 0 0 0->0]
r 15.076519486 _10_ RTR  --- 3 DSR 68 [0 ffffffff 9 800] ------- [0:255 16:255 32 0] 3 [1 2] [0 2 0 0->16] [0 0 0 0->0]
r 15.076519565 _19_ RTR  --- 3 DSR 68 [0 ffffffff 9 800] ------- [0:255 16:255 32 0] 3 [1 2] [0 2 0 0->16] [0 0 0 0->0]
r 15.076519565 _7_ RTR  --- 3 DSR 68 [0 ffffffff 9 800] ------- [0:255 16:255 32 0] 3 [1 2] [0 2 0 0->16] [0 0 0 0->0]
r 15.076519565 _13_ RTR  --- 3 DSR 68 [0 ffffffff 9 800] ------- [0:255 16:255 32 0] 3 [1 2] [0 2 0 0->16] [0 0 0 0->0]
f 15.076858802 _11_ RTR  --- 3 DSR 92 [0 ffffffff a 800] ------- [0:255 16:255 32 0] 4 [1 2] [0 2 0 0->16] [0 0 0 0->0]
f 15.077017308 _5_ RTR  --- 3 DSR 68 [0 ffffffff 4 800] ------- [0:255 16:255 32 0] 3 [1 2] [0 2 0 0->16] [0 0 0 0->0]
r 15.077549486 _21_ RTR  --- 3 DSR 68 [0 ffffffff 17 800] ------- [0:255 16:255 32 0] 3 [1 2] [0 2 0 0->16] [0 0 0 0->0]
r 15.077549486 _9_ RTR  --- 3 DSR 68 [0 ffffffff 17 800] ------- [0:255 16:255 32 0] 3 [1 2] [0 2 0 0->16] [0 0 0 0->0]
r 15.077549486 _10_ RTR  --- 3 DSR 68 [0 ffffffff 17 800] ------- [0:255 16:255 32 0] 3 [1 2] [0 2 0 0->16] [0 0 0 0->0]
r 15.077549625 _12_ RTR  --- 3 DSR 68 [0 ffffffff 17 800] ------- [0:255 16:255 32 0] 3 [1 2] [0 2 0 0->16] [0 0 0 0->0]
r 15.077549625 _6_ RTR  --- 3 DSR 68 [0 ffffffff 17 800] ------- [0:255 16:255 32 0] 3 [1 2] [0 2 0 0->16] [0 0 0 0->0]
r 15.077549625 _7_ RTR  --- 3 DSR 68 [0 ffffffff 17 800] ------- [0:255 16:255 32 0] 3 [1 2] [0 2 0 0->16] [0 0 0 0->0]
r 15.077549625 _13_ RTR  --- 3 DSR 68 [0 ffffffff 17 800] ------- [0:255 16:255 32 0] 3 [1 2] [0 2 0 0->16] [0 0 0 0->0]
r 15.077549820 _19_ RTR  --- 3 DSR 68 [0 ffffffff 17 800] ------- [0:255 16:255 32 0] 3 [1 2] [0 2 0 0->16] [0 0 0 0->0]
r 15.077549820 _22_ RTR  --- 3 DSR 68 [0 ffffffff 17 800] ------- [0:255 16:255 32 0] 3 [1 2] [0 2 0 0->16] [0 0 0 0->0]
r 15.077549898 _15_ RTR  --- 3 DSR 68 [0 ffffffff 17 800] ------- [0:255 16:255 32 0] 3 [1 2] [0 2 0 0->16] [0 0 0 0->0]
r 15.077549898 _3_ RTR  --- 3 DSR 68 [0 ffffffff 17 800] ------- [0:255 16:255 32 0] 3 [1 2] [0 2 0 0->16] [0 0 0 0->0]
r 15.077549898 _4_ RTR  --- 3 DSR 68 [0 ffffffff 17 800] ------- [0:255 16:255 32 0] 3 [1 2] [0 2 0 0->16] [0 0 0 0->0]
r 15.077549898 _16_ RTR  --- 3 DSR 68 [0 ffffffff 17 800] ------- [0:255 16:255 32 0] 3 [1 2] [0 2 0 0->16] [0 0 0 0->0]
r 15.077549898 _20_ RTR  --- 3 DSR 68 [0 ffffffff 17 800] ------- [0:255 16:255 32 0] 3 [1 2] [0 2 0 0->16] [0 0 0 0->0]
f 15.078102273 _20_ RTR  --- 3 DSR 92 [0 ffffffff 15 800] ------- [0:255 16:255 32 0] 4 [1 2] [0 2 0 0->16] [0 0 0 0->0]
f 15.078531531 _13_ RTR  --- 3 DSR 92 [0 ffffffff 15 800] ------- [0:255 16:255 32 0] 4 [1 2] [0 2 0 0->16] [0 0 0 0->0]
s 15.078610596 _16_ RTR  --- 6 DSR 60 [0 0 0 0] ------- [16:255 0:255 254 21] 4 [0 2] [1 2 4 0->16] [0 0 0 0->0]
r 15.078880153 _20_ RTR  --- 3 DSR 68 [0 ffffffff 16 800] ------- [0:255 16:255 32 0] 3 [1 2] [0 2 0 0->16] [0 0 0 0->0]
r 15.078880153 _10_ RTR  --- 3 DSR 68 [0 ffffffff 16 800] ------- [0:255 16:255 32 0] 3 [1 2] [0 2 0 0->16] [0 0 0 0->0]
r 15.078880153 _11_ RTR  --- 3 DSR 68 [0 ffffffff 16 800] ------- [0:255 16:255 32 0] 3 [1 2] [0 2 0 0->16] [0 0 0 0->0]
r 15.078880291 _13_ RTR  --- 3 DSR 68 [0 ffffffff 16 800] ------- [0:255 16:255 32 0] 3 [1 2] [0 2 0 0->16] [0 0 0 0->0]
r 15.078880291 _7_ RTR  --- 3 DSR 68 [0 ffffffff 16 800] ------- [0:255 16:255 32 0] 3 [1 2] [0 2 0 0->16] [0 0 0 0->0]
r 15.078880291 _8_ RTR  --- 3 DSR 68 [0 ffffffff 16 800] ------- [0:255 16:255 32 0] 3 [1 2] [0 2 0 0->16] [0 0 0 0->0]
r 15.078880291 _14_ RTR  --- 3 DSR 68 [0 ffffffff 16 800] ------- [0:255 16:255 32 0] 3 [1 2] [0 2 0 0->16] [0 0 0 0->0]
r 15.078880486 _18_ RTR  --- 3 DSR 68 [0 ffffffff 16 800] ------- [0:255 16:255 32 0] 3 [1 2] [0 2 0 0->16] [0 0 0 0->0]
r 15.078880486 _23_ RTR  --- 3 DSR 68 [0 ffffffff 16 800] ------- [0:255 16:255 32 0] 3 [1 2] [0 2 0 0->16] [0 0 0 0->0]
r 15.078880565 _16_ RTR  --- 3 DSR 68 [0 ffffffff 16 800] ------- [0:255 16:255 32 0] 3 [1 2] [0 2 0 0->16] [0 0 0 0->0]
r 15.078880565 _4_ RTR  --- 3 DSR 68 [0 ffffffff 16 800] ------- [0:255 16:255 32 0] 3 [1 2] [0 2 0 0->16] [0 0 0 0->0]
r 15.078880565 _21_ RTR  --- 3 DSR 68 [0 ffffffff 16 800] ------- [0:255 16:255 32 0] 3 [1 2] [0 2 0 0->16] [0 0 0 0->0]
r 15.078880565 _5_ RTR  --- 3 DSR 68 [0 ffffffff 16 800] ------- [0:255 16:255 32 0] 3 [1 2] [0 2 0 0->16] [0 0 0 0->0]
r 15.078880565 _17_ RTR  --- 3 DSR 68 [0 ffffffff 16 800] ------- [0:255 16:255 32 0] 3 [1 2] [0 2 0 0->16] [0 0 0 0->0]
s 15.078952694 _16_ RTR  --- 8 DSR 60 [0 0 0 0] ------- [16:255 0:255 254 12] 4 [0 2] [1 2 4 0->16] [0 0 0 0->0]
r 15.079950625 _4_ RTR  --- 3 DSR 68 [0 ffffffff 7 800] ------- [0:255 16:255 32 0] 3 [1 2] [0 2 0 0->16] [0 0 0 0->0]
r 15.079950625 _10_ RTR  --- 3 DSR 68 [0 ffffffff 7 800] ------- [0:255 16:255 32 0] 3 [1 2] [0 2 0 0->16] [0 0 0 0->0]
r 15.079950763 _23_ RTR  --- 3 DSR 68 [0 ffffffff 7 800] ------- [0:255 16:255 32 0] 3 [1 2] [0 2 0 0->16] [0 0 0 0->0]
r 15.079950763 _22_ RTR  --- 3 DSR 68 [0 ffffffff 7 800] ------- [0:255 16:255 32 0] 3 [1 2] [0 2 0 0->16] [0 0 0 0->0]
r 15.079950958 _1_ RTR  --- 3 DSR 68 [0 ffffffff 7 800] ------- [0:255 16:255 32 0] 3 [1 2] [0 2 0 0->16] [0 0 0 0->0]
r 15.079950958 _6_ RTR  --- 3 DSR 68 [0 ffffffff 7 800] ------- [0:255 16:255 32 0] 3 [1 2] [0 2 0 0->16] [0 0 0 0->0]
r 15.079950958 _13_ RTR  --- 3 DSR 68 [0 ffffffff 7 800] ------- [0:255 16:255 32 0] 3 [1 2] [0 2 0 0->16] [0 0 0 0->0]
r 15.079950958 _8_ RTR  --- 3 DSR 68 [0 ffffffff 7 800] ------- [0:255 16:255 32 0] 3 [1 2] [0 2 0 0->16] [0 0 0 0->0]
r 15.079951037 _21_ RTR  --- 3 DSR 68 [0 ffffffff 7 800] ------- [0:255 16:255 32 0] 3 [1 2] [0 2 0 0->16] [0 0 0 0->0]
r 15.079951037 _9_ RTR  --- 3 DSR 68 [0 ffffffff 7 800] ------- [0:255 16:255 32 0] 3 [1 2] [0 2 0 0->16] [0 0 0 0->0]
r 15.079951037 _3_ RTR  --- 3 DSR 68 [0 ffffffff 7 800] ------- [0:255 16:255 32 0] 3 [1 2] [0 2 0 0->16] [0 0 0 0->0]
r 15.079951037 _20_ RTR  --- 3 DSR 68 [0 ffffffff 7 800] ------- [0:255 16:255 32 0] 3 [1 2] [0 2 0 0->16] [0 0 0 0->0]
r 15.079951037 _5_ RTR  --- 3 DSR 68 [0 ffffffff 7 800] ------- [0:255 16:255 32 0] 3 [1 2] [0 2 0 0->16] [0 0 0 0->0]
r 15.079951037 _11_ RTR  --- 3 DSR 68 [0 ffffffff 7 800] ------- [0:255 16:255 32 0] 3 [1 2] [0 2 0 0->16] [0 0 0 0->0]
s 15.080017471 _16_ RTR  --- 7 DSR 60 [0 0 0 0] ------- [16:255 0:255 254 10] 4 [0 2] [1 2 4 0->16] [0 0 0 0->0]
f 15.080216552 _17_ RTR  --- 3 DSR 92 [0 ffffffff 16 800] ------- [0:255 16:255 32 0] 4 [1 2] [0 2 0 0->16] [0 0 0 0->0]
r 15.080921291 _4_ RTR  --- 3 DSR 48 [0 ffffffff 1 800] ------- [0:255 16:255 32 0] 2 [1 2] [0 2 0 0->16] [0 0 0 0->0]
r 15.080921625 _0_ RTR  --- 3 DSR 48 [0 ffffffff 1 800] ------- [0:255 16:255 32 0] 2 [1 2] [0 2 0 0->16] [0 0 0 0->0]
r 15.080921625 _7_ RTR  --- 3 DSR 48 [0 ffffffff 1 800] ------- [0:255 16:255 32 0] 2 [1 2] [0 2 0 0->16] [0 0 0 0->0]
r 15.080921625 _2_ RTR  --- 3 DSR 48 [0 ffffffff 1 800] ------- [0:255 16:255 32 0] 2 [1 2] [0 2 0 0->16] [0 0 0 0->0]
r 15.080921703 _3_ RTR  --- 3 DSR 48 [0 ffffffff 1 800] ------- [0:255 16:255 32 0] 2 [1 2] [0 2 0 0->16] [0 0 0 0->0]
r 15.080921703 _5_ RTR  --- 3 DSR 48 [0 ffffffff 1 800] ------- [0:255 16:255 32 0] 2 [1 2] [0 2 0 0->16] [0 0 0 0->0]
s 15.081415235 _16_ RTR  --- 9 DSR 60 [0 0 0 0] ------- [16:255 0:255 254 23] 4 [0 2] [1 2 4 0->16] [0 0 0 0->0]
s 15.081948427 _16_ RTR  --- 10 DSR 60 [0 0 0 0] ------- [16:255 0:255 254 22] 4 [0 2] [1 2 4 0->16] [0 0 0 0->0]
r 15.082052037 _2_ RTR  --- 3 DSR 68 [0 ffffffff 5 800] ------- [0:255 16:255 32 0] 3 [1 2] [0 2 0 0->16] [0 0 0 0->0]
r 15.082052037 _8_ RTR  --- 3 DSR 68 [0 ffffffff 5 800] ------- [0:255 16:255 32 0] 3 [1 2] [0 2 0 0->16] [0 0 0 0->0]
r 15.082052370 _4_ RTR  --- 3 DSR 68 [0 ffffffff 5 800] ------- [0:255 16:255 32 0] 3 [1 2] [0 2 0 0->16] [0 0 0 0->0]
r 15.082052370 _11_ RTR  --- 3 DSR 68 [0 ffffffff 5 800] ------- [0:255 16:255 32 0] 3 [1 2] [0 2 0 0->16] [0 0 0 0->0]
r 15.082052449 _1_ RTR  --- 3 DSR 68 [0 ffffffff 5 800] ------- [0:255 16:255 32 0] 3 [1 2] [0 2 0 0->16] [0 0 0 0->0]
f 15.083181026 _14_ RTR  --- 3 DSR 92 [0 ffffffff a 800] ------- [0:255 16:255 32 0] 4 [1 2] [0 2 0 0->16] [0 0 0 0->0]
r 15.084776834 _21_ RTR  --- 6 DSR 60 [13a 15 10 800] ------- [16:255 0:255 254 21] 4 [0 2] [1 2 4 0->16] [0 0 0 0->0]
f 15.084776834 _21_ RTR  --- 6 DSR 60 [13a 15 10 800] ------- [16:255 0:255 253 6] 4 [0 2] [1 2 4 0->16] [0 0 0 0->0]
r 15.086333912 _16_ RTR  --- 3 DSR 92 [0 ffffffff 12 800] ------- [0:255 16:255 32 0] 4 [1 2] [0 2 0 0->16] [0 0 0 0->0]
r 15.086333912 _20_ RTR  --- 3 DSR 92 [0 ffffffff 12 800] ------- [0:255 16:255 32 0] 4 [1 2] [0 2 0 0->16] [0 0 0 0->0]
r 15.086333912 _17_ RTR  --- 3 DSR 92 [0 ffffffff 12 800] ------- [0:255 16:255 32 0] 4 [1 2] [0 2 0 0->16] [0 0 0 0->0]
r 15.086334051 _13_ RTR  --- 3 DSR 92 [0 ffffffff 12 800] ------- [0:255 16:255 32 0] 4 [1 2] [0 2 0 0->16] [0 0 0 0->0]
r 15.086334051 _14_ RTR  --- 3 DSR 92 [0 ffffffff 12 800] ------- [0:255 16:255 32 0] 4 [1 2] [0 2 0 0->16] [0 0 0 0->0]
r 15.086334246 _19_ RTR  --- 3 DSR 92 [0 ffffffff 12 800] ------- [0:255 16:255 32 0] 4 [1 2] [0 2 0 0->16] [0 0 0 0->0]
r 15.086334246 _22_ RTR  --- 3 DSR 92 [0 ffffffff 12 800] ------- [0:255 16:255 32 0] 4 [1 2] [0 2 0 0->16] [0 0 0 0->0]
r 15.086334325 _10_ RTR  --- 3 DSR 92 [0 ffffffff 12 800] ------- [0:255 16:255 32 0] 4 [1 2] [0 2 0 0->16] [0 0 0 0->0]
r 15.086334325 _21_ RTR  --- 3 DSR 92 [0 ffffffff 12 800] ------- [0:255 16:255 32 0] 4 [1 2] [0 2 0 0->16] [0 0 0 0->0]
r 15.086334325 _11_ RTR  --- 3 DSR 92 [0 ffffffff 12 800] ------- [0:255 16:255 32 0] 4 [1 2] [0 2 0 0->16] [0 0 0 0->0]
r 15.087978561 _6_ RTR  --- 6 DSR 60 [13a 6 15 800] ------- [16:255 0:255 253 6] 4 [0 2] [1 2 4 0->16] [0 0 0 0->0]
f 15.087978561 _6_ RTR  --- 6 DSR 60 [13a 6 15 800] ------- [16:255 0:255 252 0] 4 [0 2] [1 2 4 0->16] [0 0 0 0->0]
r 15.090176561 _0_ RTR  --- 6 DSR 60 [13a 0 6 800] ------- [16:255 0:255 252 0] 4 [0 2] [1 2 4 0->16] [0 0 0 0->0]
SFESTs 15.090176561 _0_ 0 [0 -> 16] 1(1) to 6 [0 |6 21 16 ]
SFESTs 15.090176561 _0_ 4 [0 -> 16] 1(1) to 6 [0 |6 21 16 ]
s 15.090176561 _0_ RTR  --- 0 cbr 556 [0 0 0 0] ------- [0:0 16:0 32 6] [0] 0 0
r 15.091763894 _14_ RTR  --- 3 DSR 92 [0 ffffffff 11 800] ------- [0:255 16:255 32 0] 4 [1 2] [0 2 0 0->16] [0 0 0 0->0]
r 15.091763894 _18_ RTR  --- 3 DSR 92 [0 ffffffff 11 800] ------- [0:255 16:255 32 0] 4 [1 2] [0 2 0 0->16] [0 0 0 0->0]
r 15.091764032 _20_ RTR  --- 3 DSR 92 [0 ffffffff 11 800] ------- [0:255 16:255 32 0] 4 [1 2] [0 2 0 0->16] [0 0 0 0->0]
r 15.091764227 _11_ RTR  --- 3 DSR 92 [0 ffffffff 11 800] ------- [0:255 16:255 32 0] 4 [1 2] [0 2 0 0->16] [0 0 0 0->0]
r 15.091764227 _16_ RTR  --- 3 DSR 92 [0 ffffffff 11 800] ------- [0:255 16:255 32 0] 4 [1 2] [0 2 0 0->16] [0 0 0 0->0]
r 15.091764306 _22_ RTR  --- 3 DSR 92 [0 ffffffff 11 800] ------- [0:255 16:255 32 0] 4 [1 2] [0 2 0 0->16] [0 0 0 0->0]
r 15.091764306 _13_ RTR  --- 3 DSR 92 [0 ffffffff 11 800] ------- [0:255 16:255 32 0] 4 [1 2] [0 2 0 0->16] [0 0 0 0->0]
s 15.091822204 _16_ RTR  --- 11 DSR 68 [0 0 0 0] ------- [16:255 0:255 254 18] 5 [0 2] [1 2 5 0->16] [0 0 0 0->0]
s 15.091919600 _16_ RTR  --- 12 DSR 68 [0 0 0 0] ------- [16:255 0:255 254 17] 5 [0 2] [1 2 5 0->16] [0 0 0 0->0]
r 15.093046227 _20_ RTR  --- 3 DSR 92 [0 ffffffff e 800] ------- [0:255 16:255 32 0] 4 [1 2] [0 2 0 0->16] [0 0 0 0->0]
r 15.093046365 _13_ RTR  --- 3 DSR 92 [0 ffffffff 14 800] ------- [0:255 16:255 32 0] 4 [1 2] [0 2 0 0->16] [0 0 0 0->0]
r 15.093046365 _14_ RTR  --- 3 DSR 92 [0 ffffffff 14 800] ------- [0:255 16:255 32 0] 4 [1 2] [0 2 0 0->16] [0 0 0 0->0]
s 15.094064023 _0_ AGT  --- 13 cbr 512 [0 0 0 0] ------- [0:0 16:0 32 0] [2] 0 0
r 15.094064023 _0_ RTR  --- 13 cbr 512 [0 0 0 0] ------- [0:0 16:0 32 0] [2] 0 0
SFESTs 15.094064023 _0_ 13 [0 -> 16] 1(1) to 6 [0 |6 21 16 ]
s 15.094064023 _0_ RTR  --- 13 cbr 556 [0 0 0 0] ------- [0:0 16:0 32 6] [2] 0 0
r 15.094732837 _8_ RTR  --- 3 DSR 92 [0 ffffffff b 800] ------- [0:255 16:255 32 0] 4 [1 2] [0 2 0 0->16] [0 0 0 0->0]
r 15.094732837 _14_ RTR  --- 3 DSR 92 [0 ffffffff b 800] ------- [0:255 16:255 32 0] 4 [1 2] [0 2 0 0->16] [0 0 0 0->0]
r 15.094732894 _10_ RTR  --- 3 DSR 92 [0 ffffffff d 800] ------- [0:255 16:255 32 0] 4 [1 2] [0 2 0 0->16] [0 0 0 0->0]
r 15.094732894 _21_ RTR  --- 3 DSR 92 [0 ffffffff d 800] ------- [0:255 16:255 32 0] 4 [1 2] [0 2 0 0->16] [0 0 0 0->0]
r 15.094732894 _16_ RTR  --- 3 DSR 92 [0 ffffffff d 800] ------- [0:255 16:255 32 0] 4 [1 2] [0 2 0 0->16] [0 0 0 0->0]
r 15.094733032 _23_ RTR  --- 3 DSR 92 [0 ffffffff d 800] ------- [0:255 16:255 32 0] 4 [1 2] [0 2 0 0->16] [0 0 0 0->0]
r 15.094733032 _19_ RTR  --- 3 DSR 92 [0 ffffffff d 800] ------- [0:255 16:255 32 0] 4 [1 2] [0 2 0 0->16] [0 0 0 0->0]
r 15.094733170 _5_ RTR  --- 3 DSR 92 [0 ffffffff b 800] ------- [0:255 16:255 32 0] 4 [1 2] [0 2 0 0->16] [0 0 0 0->0]
r 15.094733227 _12_ RTR  --- 3 DSR 92 [0 ffffffff d 800] ------- [0:255 16:255 32 0] 4 [1 2] [0 2 0 0->16] [0 0 0 0->0]
r 15.094733249 _13_ RTR  --- 3 DSR 92 [0 ffffffff b 800] ------- [0:255 16:255 32 0] 4 [1 2] [0 2 0 0->16] [0 0 0 0->0]
r 15.094733306 _15_ RTR  --- 3 DSR 92 [0 ffffffff d 800] ------- [0:255 16:255 32 0] 4 [1 2] [0 2 0 0->16] [0 0 0 0->0]
r 15.094733306 _9_ RTR  --- 3 DSR 92 [0 ffffffff d 800] ------- [0:255 16:255 32 0] 4 [1 2] [0 2 0 0->16] [0 0 0 0->0]
r 15.094733306 _11_ RTR  --- 3 DSR 92 [0 ffffffff d 800] ------- [0:255 16:255 32 0] 4 [1 2] [0 2 0 0->16] [0 0 0 0->0]
r 15.096741682 _22_ RTR  --- 10 DSR 60 [13a 16 10 800] ------- [16:255 0:255 254 22] 4 [0 2] [1 2 4 0->16] [0 0 0 0->0]
f 15.096741682 _22_ RTR  --- 10 DSR 60 [13a 16 10 800] ------- [16:255 0:255 253 4] 4 [0 2] [1 2 4 0->16] [0 0 0 0->0]
r 15.098156472 _5_ RTR  --- 3 DSR 68 [0 ffffffff 8 800] ------- [0:255 16:255 32 0] 3 [1 2] [0 2 0 0->16] [0 0 0 0->0]
r 15.098156472 _11_ RTR  --- 3 DSR 68 [0 ffffffff 8 800] ------- [0:255 16:255 32 0] 3 [1 2] [0 2 0 0->16] [0 0 0 0->0]
r 15.098156610 _22_ RTR  --- 3 DSR 68 [0 ffffffff 8 800] ------- [0:255 16:255 32 0] 3 [1 2] [0 2 0 0->16] [0 0 0 0->0]
r 15.098156805 _2_ RTR  --- 3 DSR 68 [0 ffffffff 8 800] ------- [0:255 16:255 32 0] 3 [1 2] [0 2 0 0->16] [0 0 0 0->0]
r 15.098156805 _7_ RTR  --- 3 DSR 68 [0 ffffffff 8 800] ------- [0:255 16:255 32 0] 3 [1 2] [0 2 0 0->16] [0 0 0 0->0]
r 15.098156805 _14_ RTR  --- 3 DSR 68 [0 ffffffff 8 800] ------- [0:255 16:255 32 0] 3 [1 2] [0 2 0 0->16] [0 0 0 0->0]
r 15.098156884 _20_ RTR  --- 3 DSR 68 [0 ffffffff 8 800] ------- [0:255 16:255 32 0] 3 [1 2] [0 2 0 0->16] [0 0 0 0->0]
r 15.098156884 _10_ RTR  --- 3 DSR 68 [0 ffffffff 8 800] ------- [0:255 16:255 32 0] 3 [1 2] [0 2 0 0->16] [0 0 0 0->0]
r 15.098156884 _4_ RTR  --- 3 DSR 68 [0 ffffffff 8 800] ------- [0:255 16:255 32 0] 3 [1 2] [0 2 0 0->16] [0 0 0 0->0]
r 15.100220846 _4_ RTR  --- 10 DSR 60 [13a 4 16 800] ------- [16:255 0:255 253 4] 4 [0 2] [1 2 4 0->16] [0 0 0 0->0]
f 15.100220846 _4_ RTR  --- 10 DSR 60 [13a 4 16 800] ------- [16:255 0:255 252 0] 4 [0 2] [1 2 4 0->16] [0 0 0 0->0]
s 15.102865905 _16_ RTR  --- 14 DSR 68 [0 0 0 0] ------- [16:255 0:255 254 13] 5 [0 2] [1 2 5 0->16] [0 0 0 0->0]
r 15.106497515 _6_ RTR  --- 0 cbr 556 [13a 6 0 800] ------- [0:0 16:0 32 6] [0] 1 0
f 15.106497515 _6_ RTR  --- 0 cbr 556 [13a 6 0 800] ------- [0:0 16:0 31 21] [0] 1 0
r 15.112404182 _6_ RTR  --- 13 cbr 556 [13a 6 0 800] ------- [0:0 16:0 32 6] [2] 1 0
f 15.112404182 _6_ RTR  --- 13 cbr 556 [13a 6 0 800] ------- [0:0 16:0 31 21] [2] 1 0
r 15.114563163 _0_ RTR  --- 10 DSR 60 [13a 0 4 800] ------- [16:255 0:255 252 0] 4 [0 2] [1 2 4 0->16] [0 0 0 0->0]
s 15.120176561 _0_ RTR  --- 4 cbr 556 [0 0 0 0] ------- [0:0 16:0 32 6] [1] 0 0
r 15.120650066 _21_ RTR  --- 0 cbr 556 [13a 15 6 800] ------- [0:0 16:0 31 21] [0] 2 0
f 15.120650066 _21_ RTR  --- 0 cbr 556 [13a 15 6 800] ------- [0:0 16:0 30 16] [0] 2 0
r 15.126597047 _21_ RTR  --- 13 cbr 556 [13a 15 6 800] ------- [0:0 16:0 31 21] [2] 2 0
f 15.126597047 _21_ RTR  --- 13 cbr 556 [13a 15 6 800] ------- [0:0 16:0 30 16] [2] 2 0
r 15.132682462 _16_ RTR  --- 0 cbr 556 [13a 10 15 800] ------- [0:0 16:0 30 16] [0] 3 0
r 15.132682462 _16_ AGT  --- 0 cbr 512 [13a 10 15 800] ------- [0:0 16:0 30 16] [0] 3 0
r 15.135024462 _17_ RTR  --- 12 DSR 68 [13a 11 10 800] ------- [16:255 0:255 254 17] 5 [0 2] [1 2 5 0->16] [0 0 0 0->0]
f 15.135024462 _17_ RTR  --- 12 DSR 68 [13a 11 10 800] ------- [16:255 0:255 253 22] 5 [0 2] [1 2 5 0->16] [0 0 0 0->0]
r 15.138432128 _13_ RTR  --- 14 DSR 68 [13a d 10 800] ------- [16:255 0:255 254 13] 5 [0 2] [1 2 5 0->16] [0 0 0 0->0]
f 15.138432128 _13_ RTR  --- 14 DSR 68 [13a d 10 800] ------- [16:255 0:255 253 21] 5 [0 2] [1 2 5 0->16] [0 0 0 0->0]
r 15.144357876 _16_ RTR  --- 13 cbr 556 [13a 10 15 800] ------- [0:0 16:0 30 16] [2] 3 0
r 15.144357876 _16_ AGT  --- 13 cbr 512 [13a 10 15 800] ------- [0:0 16:0 30 16] [2] 3 0
r 15.146379209 _21_ RTR  --- 14 DSR 68 [13a 15 d 800] ------- [16:255 0:255 253 21] 5 [0 2] [1 2 5 0->16] [0 0 0 0->0]
f 15.146379209 _21_ RTR  --- 14 DSR 68 [13a 15 d 800] ------- [16:255 0:255 252 6] 5 [0 2] [1 2 5 0->16] [0 0 0 0->0]