n -t * -s 0  -x 100 -y 0 -Z 0 -z 30  -v circle -c black
n -t * -s 1  -x 300 -y 0 -Z 0 -z 30  -v circle -c black
n -t * -s 2  -x 500 -y 0 -Z 0 -z 30  -v circle -c black
n -t * -s 3  -x 100 -y 100 -Z 0 -z 30  -v circle -c black
n -t * -s 4  -x 300 -y 100 -Z 0 -z 30  -v circle -c black
n -t * -s 5  -x 500 -y 100 -Z 0 -z 30  -v circle -c black
n -t * -s 6  -x 100 -y 200 -Z 0 -z 30  -v circle -c black
n -t * -s 7  -x 300 -y 200 -Z 0 -z 30  -v circle -c black
n -t * -s 8  -x 500 -y 200 -Z 0 -z 30  -v circle -c black
n -t * -s 9  -x 100 -y 300 -Z 0 -z 30  -v circle -c black
n -t * -s 10  -x 300 -y 300 -Z 0 -z 30  -v circle -c black
n -t * -s 11  -x 500 -y 300 -Z 0 -z 30  -v circle -c black
n -t * -s 12  -x 100 -y 400 -Z 0 -z 30  -v circle -c black
n -t * -s 13  -x 300 -y 400 -Z 0 -z 30  -v circle -c black
n -t * -s 14  -x 500 -y 400 -Z 0 -z 30  -v circle -c black
n -t * -s 15  -x 100 -y 500 -Z 0 -z 30  -v circle -c black
n -t * -s 16  -x 300 -y 500 -Z 0 -z 30  -v circle -c black
n -t * -s 17  -x 500 -y 500 -Z 0 -z 30  -v circle -c black
n -t * -s 18  -x 400 -y 500 -Z 0 -z 30  -v circle -c black
n -t * -s 19  -x 200 -y 500 -Z 0 -z 30  -v circle -c black
n -t * -s 20  -x 400 -y 400 -Z 0 -z 30  -v circle -c black
n -t * -s 21  -x 200 -y 400 -Z 0 -z 30  -v circle -c black
n -t * -s 22  -x 400 -y 300 -Z 0 -z 30  -v circle -c black
n -t * -s 23  -x 200 -y 300 -Z 0 -z 30  -v circle -c black
V -t * -v 1.0a5 -a 0
W -t * -x 500 -y 500
A -t * -n 1 -p 0 -o 0xffffffff -c 31 -a 1
A -t * -h 1 -m 2147483647 -s 0
+ -t 15.000000000 -s 0 -d -1 -p cbr -e 512 -c 2 -a 0 -i 0 -k AGT 
- -t 15.000000000 -s 0 -d -1 -p cbr -e 512 -c 2 -a 0 -i 0 -k AGT
h -t 15.000000000 -s 0 -d -1 -p cbr -e 512 -c 2 -a 0 -i 0 -k AGT
+ -t 15.005505108 -s 0 -d -1 -p DSR -e 32 -c 2 -a 0 -i 1 -k RTR 
- -t 15.005505108 -s 0 -d -1 -p DSR -e 32 -c 2 -a 0 -i 1 -k RTR
h -t 15.005505108 -s 0 -d -1 -p DSR -e 32 -c 2 -a 0 -i 1 -k RTR
+ -t 15.057418555 -s 0 -d -1 -p cbr -e 512 -c 2 -a 0 -i 4 -k AGT 
- -t 15.057418555 -s 0 -d -1 -p cbr -e 512 -c 2 -a 0 -i 4 -k AGT
h -t 15.057418555 -s 0 -d -1 -p cbr -e 512 -c 2 -a 0 -i 4 -k AGT
+ -t 15.061917794 -s 0 -d -1 -p DSR -e 32 -c 2 -a 0 -i 3 -k RTR 
- -t 15.061917794 -s 0 -d -1 -p DSR -e 32 -c 2 -a 0 -i 3 -k RTR
h -t 15.061917794 -s 0 -d -1 -p DSR -e 32 -c 2 -a 0 -i 3 -k RTR
+ -t 15.063691288 -s 3 -d -1 -p DSR -e 48 -c 2 -a 0 -i 3 -k RTR 
- -t 15.063691288 -s 3 -d -1 -p DSR -e 48 -c 2 -a 0 -i 3 -k RTR
h -t 15.063691288 -s 3 -d -1 -p DSR -e 48 -c 2 -a 0 -i 3 -k RTR
+ -t 15.064305680 -s 6 -d -1 -p DSR -e 48 -c 2 -a 0 -i 3 -k RTR 
- -t 15.064305680 -s 6 -d -1 -p DSR -e 48 -c 2 -a 0 -i 3 -k RTR
h -t 15.064305680 -s 6 -d -1 -p DSR -e 48 -c 2 -a 0 -i 3 -k RTR
+ -t 15.065997446 -s 4 -d -1 -p DSR -e 48 -c 2 -a 0 -i 3 -k RTR 
- -t 15.065997446 -s 4 -d -1 -p DSR -e 48 -c 2 -a 0 -i 3 -k RTR
h -t 15.065997446 -s 4 -d -1 -p DSR -e 48 -c 2 -a 0 -i 3 -k RTR
+ -t 15.069400564 -s 21 -d -1 -p DSR -e 68 -c 2 -a 0 -i 3 -k RTR 
- -t 15.069400564 -s 21 -d -1 -p DSR -e 68 -c 2 -a 0 -i 3 -k RTR
h -t 15.069400564 -s 21 -d -1 -p DSR -e 68 -c 2 -a 0 -i 3 -k RTR
+ -t 15.069689983 -s 10 -d -1 -p DSR -e 68 -c 2 -a 0 -i 3 -k RTR 
- -t 15.069689983 -s 10 -d -1 -p DSR -e 68 -c 2 -a 0 -i 3 -k RTR
h -t 15.069689983 -s 10 -d -1 -p DSR -e 68 -c 2 -a 0 -i 3 -k RTR
+ -t 15.069758033 -s 2 -d -1 -p DSR -e 68 -c 2 -a 0 -i 3 -k RTR 
- -t 15.069758033 -s 2 -d -1 -p DSR -e 68 -c 2 -a 0 -i 3 -k RTR
h -t 15.069758033 -s 2 -d -1 -p DSR -e 68 -c 2 -a 0 -i 3 -k RTR
+ -t 15.069920935 -s 1 -d -1 -p DSR -e 48 -c 2 -a 0 -i 3 -k RTR 
- -t 15.069920935 -s 1 -d -1 -p DSR -e 48 -c 2 -a 0 -i 3 -k RTR
h -t 15.069920935 -s 1 -d -1 -p DSR -e 48 -c 2 -a 0 -i 3 -k RTR
+ -t 15.071410996 -s 19 -d -1 -p DSR -e 92 -c 2 -a 0 -i 3 -k RTR 
- -t 15.071410996 -s 19 -d -1 -p DSR -e 92 -c 2 -a 0 -i 3 -k RTR
h -t 15.071410996 -s 19 -d -1 -p DSR -e 92 -c 2 -a 0 -i 3 -k RTR
+ -t 15.071749748 -s 7 -d -1 -p DSR -e 68 -c 2 -a 0 -i 3 -k RTR 
- -t 15.071749748 -s 7 -d -1 -p DSR -e 68 -c 2 -a 0 -i 3 -k RTR
h -t 15.071749748 -s 7 -d -1 -p DSR -e 68 -c 2 -a 0 -i 3 -k RTR
+ -t 15.072938138 -s 23 -d -1 -p DSR -e 68 -c 2 -a 0 -i 3 -k RTR 
- -t 15.072938138 -s 23 -d -1 -p DSR -e 68 -c 2 -a 0 -i 3 -k RTR
h -t 15.072938138 -s 23 -d -1 -p DSR -e 68 -c 2 -a 0 -i 3 -k RTR
+ -t 15.073179329 -s 18 -d -1 -p DSR -e 92 -c 2 -a 0 -i 3 -k RTR 
- -t 15.073179329 -s 18 -d -1 -p DSR -e 92 -c 2 -a 0 -i 3 -k RTR
h -t 15.073179329 -s 18 -d -1 -p DSR -e 92 -c 2 -a 0 -i 3 -k RTR
+ -t 15.073852691 -s 12 -d -1 -p DSR -e 68 -c 2 -a 0 -i 3 -k RTR 
- -t 15.073852691 -s 12 -d -1 -p DSR -e 68 -c 2 -a 0 -i 3 -k RTR
h -t 15.073852691 -s 12 -d -1 -p DSR -e 68 -c 2 -a 0 -i 3 -k RTR
+ -t 15.074004774 -s 22 -d -1 -p DSR -e 68 -c 2 -a 0 -i 3 -k RTR 
- -t 15.074004774 -s 22 -d -1 -p DSR -e 68 -c 2 -a 0 -i 3 -k RTR
h -t 15.074004774 -s 22 -d -1 -p DSR -e 68 -c 2 -a 0 -i 3 -k RTR
+ -t 15.074066562 -s 8 -d -1 -p DSR -e 68 -c 2 -a 0 -i 3 -k RTR 
- -t 15.074066562 -s 8 -d -1 -p DSR -e 68 -c 2 -a 0 -i 3 -k RTR
h -t 15.074066562 -s 8 -d -1 -p DSR -e 68 -c 2 -a 0 -i 3 -k RTR
+ -t 15.074307654 -s 9 -d -1 -p DSR -e 68 -c 2 -a 0 -i 3 -k RTR 
- -t 15.074307654 -s 9 -d -1 -p DSR -e 68 -c 2 -a 0 -i 3 -k RTR
h -t 15.074307654 -s 9 -d -1 -p DSR -e 68 -c 2 -a 0 -i 3 -k RTR
+ -t 15.074773158 -s 15 -d -1 -p DSR -e 92 -c 2 -a 0 -i 3 -k RTR 
- -t 15.074773158 -s 15 -d -1 -p DSR -e 92 -c 2 -a 0 -i 3 -k RTR
h -t 15.074773158 -s 15 -d -1 -p DSR -e 92 -c 2 -a 0 -i 3 -k RTR
+ -t 15.076858802 -s 11 -d -1 -p DSR -e 92 -c 2 -a 0 -i 3 -k RTR 
- -t 15.076858802 -s 11 -d -1 -p DSR -e 92 -c 2 -a 0 -i 3 -k RTR
h -t 15.076858802 -s 11 -d -1 -p DSR -e 92 -c 2 -a 0 -i 3 -k RTR
+ -t 15.077017308 -s 5 -d -1 -p DSR -e 68 -c 2 -a 0 -i 3 -k RTR 
- -t 15.077017308 -s 5 -d -1 -p DSR -e 68 -c 2 -a 0 -i 3 -k RTR
h -t 15.077017308 -s 5 -d -1 -p DSR -e 68 -c 2 -a 0 -i 3 -k RTR
+ -t 15.078102273 -s 20 -d -1 -p DSR -e 92 -c 2 -a 0 -i 3 -k RTR 
- -t 15.078102273 -s 20 -d -1 -p DSR -e 92 -c 2 -a 0 -i 3 -k RTR
h -t 15.078102273 -s 20 -d -1 -p DSR -e 92 -c 2 -a 0 -i 3 -k RTR
+ -t 15.078531531 -s 13 -d -1 -p DSR -e 92 -c 2 -a 0 -i 3 -k RTR 
- -t 15.078531531 -s 13 -d -1 -p DSR -e 92 -c 2 -a 0 -i 3 -k RTR
h -t 15.078531531 -s 13 -d -1 -p DSR -e 92 -c 2 -a 0 -i 3 -k RTR
+ -t 15.078610596 -s 16 -d 21 -p DSR -e 60 -c 2 -a 0 -i 6 -k RTR 
- -t 15.078610596 -s 16 -d 21 -p DSR -e 60 -c 2 -a 0 -i 6 -k RTR
h -t 15.078610596 -s 16 -d 21 -p DSR -e 60 -c 2 -a 0 -i 6 -k RTR
+ -t 15.078952694 -s 16 -d 12 -p DSR -e 60 -c 2 -a 0 -i 8 -k RTR 
- -t 15.078952694 -s 16 -d 12 -p DSR -e 60 -c 2 -a 0 -i 8 -k RTR
h -t 15.078952694 -s 16 -d 12 -p DSR -e 60 -c 2 -a 0 -i 8 -k RTR
+ -t 15.080017471 -s 16 -d 10 -p DSR -e 60 -c 2 -a 0 -i 7 -k RTR 
- -t 15.080017471 -s 16 -d 10 -p DSR -e 60 -c 2 -a 0 -i 7 -k RTR
h -t 15.080017471 -s 16 -d 10 -p DSR -e 60 -c 2 -a 0 -i 7 -k RTR
+ -t 15.080216552 -s 17 -d -1 -p DSR -e 92 -c 2 -a 0 -i 3 -k RTR 
- -t 15.080216552 -s 17 -d -1 -p DSR -e 92 -c 2 -a 0 -i 3 -k RTR
h -t 15.080216552 -s 17 -d -1 -p DSR -e 92 -c 2 -a 0 -i 3 -k RTR
+ -t 15.081415235 -s 16 -d 23 -p DSR -e 60 -c 2 -a 0 -i 9 -k RTR 
- -t 15.081415235 -s 16 -d 23 -p DSR -e 60 -c 2 -a 0 -i 9 -k RTR
h -t 15.081415235 -s 16 -d 23 -p DSR -e 60 -c 2 -a 0 -i 9 -k RTR
+ -t 15.081948427 -s 16 -d 22 -p DSR -e 60 -c 2 -a 0 -i 10 -k RTR 
- -t 15.081948427 -s 16 -d 22 -p DSR -e 60 -c 2 -a 0 -i 10 -k RTR
h -t 15.081948427 -s 16 -d 22 -p DSR -e 60 -c 2 -a 0 -i 10 -k RTR
+ -t 15.083181026 -s 14 -d -1 -p DSR -e 92 -c 2 -a 0 -i 3 -k RTR 
- -t 15.083181026 -s 14 -d -1 -p DSR -e 92 -c 2 -a 0 -i 3 -k RTR
h -t 15.083181026 -s 14 -d -1 -p DSR -e 92 -c 2 -a 0 -i 3 -k RTR
+ -t 15.084776834 -s 21 -d 6 -p DSR -e 60 -c 2 -a 0 -i 6 -k RTR 
- -t 15.084776834 -s 21 -d 6 -p DSR -e 60 -c 2 -a 0 -i 6 -k RTR
h -t 15.084776834 -s 21 -d 6 -p DSR -e 60 -c 2 -a 0 -i 6 -k RTR
+ -t 15.087978561 -s 6 -d 0 -p DSR -e 60 -c 2 -a 0 -i 6 -k RTR 
- -t 15.087978561 -s 6 -d 0 -p DSR -e 60 -c 2 -a 0 -i 6 -k RTR
h -t 15.087978561 -s 6 -d 0 -p DSR -e 60 -c 2 -a 0 -i 6 -k RTR
+ -t 15.090176561 -s 0 -d 6 -p cbr -e 556 -c 2 -a 0 -i 0 -k RTR 
- -t 15.090176561 -s 0 -d 6 -p cbr -e 556 -c 2 -a 0 -i 0 -k RTR
h -t 15.090176561 -s 0 -d 6 -p cbr -e 556 -c 2 -a 0 -i 0 -k RTR
+ -t 15.091822204 -s 16 -d 18 -p DSR -e 68 -c 2 -a 0 -i 11 -k RTR 
- -t 15.091822204 -s 16 -d 18 -p DSR -e 68 -c 2 -a 0 -i 11 -k RTR
h -t 15.091822204 -s 16 -d 18 -p DSR -e 68 -c 2 -a 0 -i 11 -k RTR
+ -t 15.091919600 -s 16 -d 17 -p DSR -e 68 -c 2 -a 0 -i 12 -k RTR 
- -t 15.091919600 -s 16 -d 17 -p DSR -e 68 -c 2 -a 0 -i 12 -k RTR
h -t 15.091919600 -s 16 -d 17 -p DSR -e 68 -c 2 -a 0 -i 12 -k RTR
+ -t 15.094064023 -s 0 -d -1 -p cbr -e 512 -c 2 -a 0 -i 13 -k AGT 
- -t 15.094064023 -s 0 -d -1 -p cbr -e 512 -c 2 -a 0 -i 13 -k AGT
h -t 15.094064023 -s 0 -d -1 -p cbr -e 512 -c 2 -a 0 -i 13 -k AGT
+ -t 15.094064023 -s 0 -d 6 -p cbr -e 556 -c 2 -a 0 -i 13 -k RTR 
- -t 15.094064023 -s 0 -d 6 -p cbr -e 556 -c 2 -a 0 -i 13 -k RTR
h -t 15.094064023 -s 0 -d 6 -p cbr -e 556 -c 2 -a 0 -i 13 -k RTR
+ -t 15.096741682 -s 22 -d 4 -p DSR -e 60 -c 2 -a 0 -i 10 -k RTR 
- -t 15.096741682 -s 22 -d 4 -p DSR -e 60 -c 2 -a 0 -i 10 -k RTR
h -t 15.096741682 -s 22 -d 4 -p DSR -e 60 -c 2 -a 0 -i 10 -k RTR
+ -t 15.100220846 -s 4 -d 0 -p DSR -e 60 -c 2 -a 0 -i 10 -k RTR 
- -t 15.100220846 -s 4 -d 0 -p DSR -e 60 -c 2 -a 0 -i 10 -k RTR
h -t 15.100220846 -s 4 -d 0 -p DSR -e 60 -c 2 -a 0 -i 10 -k RTR
+ -t 15.102865905 -s 16 -d 13 -p DSR -e 68 -c 2 -a 0 -i 14 -k RTR 
- -t 15.102865905 -s 16 -d 13 -p DSR -e 68 -c 2 -a 0 -i 14 -k RTR
h -t 15.102865905 -s 16 -d 13 -p DSR -e 68 -c 2 -a 0 -i 14 -k RTR
+ -t 15.106497515 -s 6 -d 21 -p cbr -e 556 -c 2 -a 0 -i 0 -k RTR 
- -t 15.106497515 -s 6 -d 21 -p cbr -e 556 -c 2 -a 0 -i 0 -k RTR
h -t 15.106497515 -s 6 -d 21 -p cbr -e 556 -c 2 -a 0 -i 0 -k RTR
+ -t 15.112404182 -s 6 -d 21 -p cbr -e 556 -c 2 -a 0 -i 13 -k RTR 
- -t 15.112404182 -s 6 -d 21 -p cbr -e 556 -c 2 -a 0 -i 13 -k RTR
h -t 15.112404182 -s 6 -d 21 -p cbr -e 556 -c 2 -a 0 -i 13 -k RTR
+ -t 15.120176561 -s 0 -d 6 -p cbr -e 556 -c 2 -a 0 -i 4 -k RTR 
- -t 15.120176561 -s 0 -d 6 -p cbr -e 556 -c 2 -a 0 -i 4 -k RTR
h -t 15.120176561 -s 0 -d 6 -p cbr -e 556 -c 2 -a 0 -i 4 -k RTR
+ -t 15.120650066 -s 21 -d 16 -p cbr -e 556 -c 2 -a 0 -i 0 -k RTR 
- -t 15.120650066 -s 21 -d 16 -p cbr -e 556 -c 2 -a 0 -i 0 -k RTR
h -t 15.120650066 -s 21 -d 16 -p cbr -e 556 -c 2 -a 0 -i 0 -k RTR
+ -t 15.126597047 -s 21 -d 16 -p cbr -e 556 -c 2 -a 0 -i 13 -k RTR 
- -t 15.126597047 -s 21 -d 16 -p cbr -e 556 -c 2 -a 0 -i 13 -k RTR
h -t 15.126597047 -s 21 -d 16 -p cbr -e 556 -c 2 -a 0 -i 13 -k RTR
r -t 15.132682462 -s 16 -d 16 -p cbr -e 512 -c 2 -a 0 -i 0 -k AGT
+ -t 15.135024462 -s 17 -d 22 -p DSR -e 68 -c 2 -a 0 -i 12 -k RTR 
- -t 15.135024462 -s 17 -d 22 -p DSR -e 68 -c 2 -a 0 -i 12 -k RTR
h -t 15.135024462 -s 17 -d 22 -p DSR -e 68 -c 2 -a 0 -i 12 -k RTR
+ -t 15.138432128 -s 13 -d 21 -p DSR -e 68 -c 2 -a 0 -i 14 -k RTR 
- -t 15.138432128 -s 13 -d 21 -p DSR -e 68 -c 2 -a 0 -i 14 -k RTR
h -t 15.138432128 -s 13 -d 21 -p DSR -e 68 -c 2 -a 0 -i 14 -k RTR
r -t 15.144357876 -s 16 -d 16 -p cbr -e 512 -c 2 -a 0 -i 13 -k AGT
+ -t 15.146379209 -s 21 -d 6 -p DSR -e 68 -c 2 -a 0 -i 14 -k RTR 
- -t 15.146379209 -s 21 -d 6 -p DSR -e 68 -c 2 -a 0 -i 14 -k RTR
h -t 15.146379209 -s 21 -d 6 -p DSR -e 68 -c 2 -a 0 -i 14 -k RTR
+ -t 15.148441445 -s 6 -d 0 -p DSR -e 68 -c 2 -a 0 -i 14 -k RTR 
- -t 15.148441445 -s 6 -d 0 -p DSR -e 68 -c 2 -a 0 -i 14 -k RTR
h -t 15.148441445 -s 6 -d 0 -p DSR -e 68 -c 2 -a 0 -i 14 -k RTR
+ -t 15.155116681 -s 22 -d 4 -p DSR -e 68 -c 2 -a 0 -i 12 -k RTR 
- -t 15.155116681 -s 22 -d 4 -p DSR -e 68 -c 2 -a 0 -i 12 -k RTR
h -t 15.155116681 -s 22 -d 4 -p DSR -e 68 -c 2 -a 0 -i 12 -k RTR
+ -t 15.157445400 -s 18 -d 21 -p DSR -e 68 -c 2 -a 0 -i 11 -k RTR 
- -t 15.157445400 -s 18 -d 21 -p DSR -e 68 -c 2 -a 0 -i 11 -k RTR
h -t 15.157445400 -s 18 -d 21 -p DSR -e 68 -c 2 -a 0 -i 11 -k RTR
+ -t 15.159548303 -s 4 -d 0 -p DSR -e 68 -c 2 -a 0 -i 12 -k RTR 
- -t 15.159548303 -s 4 -d 0 -p DSR -e 68 -c 2 -a 0 -i 12 -k RTR
h -t 15.159548303 -s 4 -d 0 -p DSR -e 68 -c 2 -a 0 -i 12 -k RTR
+ -t 15.162369969 -s 0 -d -1 -p cbr -e 512 -c 2 -a 0 -i 15 -k AGT 
- -t 15.162369969 -s 0 -d -1 -p cbr -e 512 -c 2 -a 0 -i 15 -k AGT
h -t 15.162369969 -s 0 -d -1 -p cbr -e 512 -c 2 -a 0 -i 15 -k AGT
+ -t 15.162369969 -s 0 -d 6 -p cbr -e 532 -c 2 -a 0 -i 15 -k RTR 
- -t 15.162369969 -s 0 -d 6 -p cbr -e 532 -c 2 -a 0 -i 15 -k RTR
h -t 15.162369969 -s 0 -d 6 -p cbr -e 532 -c 2 -a 0 -i 15 -k RTR
+ -t 15.164183404 -s 21 -d 6 -p DSR -e 68 -c 2 -a 0 -i 11 -k RTR 
- -t 15.164183404 -s 21 -d 6 -p DSR -e 68 -c 2 -a 0 -i 11 -k RTR
h -t 15.164183404 -s 21 -d 6 -p DSR -e 68 -c 2 -a 0 -i 11 -k RTR
+ -t 15.166142111 -s 23 -d 3 -p DSR -e 60 -c 2 -a 0 -i 9 -k RTR 
- -t 15.166142111 -s 23 -d 3 -p DSR -e 60 -c 2 -a 0 -i 9 -k RTR
h -t 15.166142111 -s 23 -d 3 -p DSR -e 60 -c 2 -a 0 -i 9 -k RTR
+ -t 15.168224681 -s 6 -d 0 -p DSR -e 68 -c 2 -a 0 -i 11 -k RTR 
- -t 15.168224681 -s 6 -d 0 -p DSR -e 68 -c 2 -a 0 -i 11 -k RTR
h -t 15.168224681 -s 6 -d 0 -p DSR -e 68 -c 2 -a 0 -i 11 -k RTR
+ -t 15.173029971 -s 3 -d 0 -p DSR -e 60 -c 2 -a 0 -i 9 -k RTR 
- -t 15.173029971 -s 3 -d 0 -p DSR -e 60 -c 2 -a 0 -i 9 -k RTR
h -t 15.173029971 -s 3 -d 0 -p DSR -e 60 -c 2 -a 0 -i 9 -k RTR
+ -t 15.181552971 -s 6 -d 21 -p cbr -e 556 -c 2 -a 0 -i 4 -k RTR 
- -t 15.181552971 -s 6 -d 21 -p cbr -e 556 -c 2 -a 0 -i 4 -k RTR
h -t 15.181552971 -s 6 -d 21 -p cbr -e 556 -c 2 -a 0 -i 4 -k RTR
+ -t 15.187719207 -s 21 -d 16 -p cbr -e 556 -c 2 -a 0 -i 4 -k RTR 
- -t 15.187719207 -s 21 -d 16 -p cbr -e 556 -c 2 -a 0 -i 4 -k RTR
h -t 15.187719207 -s 21 -d 16 -p cbr -e 556 -c 2 -a 0 -i 4 -k RTR
r -t 15.193724621 -s 16 -d 16 -p cbr -e 512 -c 2 -a 0 -i 4 -k AGT
+ -t 15.195682621 -s 10 -d 6 -p DSR -e 60 -c 2 -a 0 -i 7 -k RTR 
- -t 15.195682621 -s 10 -d 6 -p DSR -e 60 -c 2 -a 0 -i 7 -k RTR
h -t 15.195682621 -s 10 -d 6 -p DSR -e 60 -c 2 -a 0 -i 7 -k RTR
+ -t 15.197901524 -s 12 -d 6 -p DSR -e 60 -c 2 -a 0 -i 8 -k RTR 
- -t 15.197901524 -s 12 -d 6 -p DSR -e 60 -c 2 -a 0 -i 8 -k RTR
h -t 15.197901524 -s 12 -d 6 -p DSR -e 60 -c 2 -a 0 -i 8 -k RTR
+ -t 15.200160505 -s 6 -d 0 -p DSR -e 60 -c 2 -a 0 -i 7 -k RTR 
- -t 15.200160505 -s 6 -d 0 -p DSR -e 60 -c 2 -a 0 -i 7 -k RTR
h -t 15.200160505 -s 6 -d 0 -p DSR -e 60 -c 2 -a 0 -i 7 -k RTR
+ -t 15.202119172 -s 6 -d 0 -p DSR -e 60 -c 2 -a 0 -i 8 -k RTR 
- -t 15.202119172 -s 6 -d 0 -p DSR -e 60 -c 2 -a 0 -i 8 -k RTR
h -t 15.202119172 -s 6 -d 0 -p DSR -e 60 -c 2 -a 0 -i 8 -k RTR
+ -t 15.207983838 -s 6 -d 21 -p cbr -e 532 -c 2 -a 0 -i 15 -k RTR 
- -t 15.207983838 -s 6 -d 21 -p cbr -e 532 -c 2 -a 0 -i 15 -k RTR
h -t 15.207983838 -s 6 -d 21 -p cbr -e 532 -c 2 -a 0 -i 15 -k RTR
+ -t 15.209501716 -s 0 -d -1 -p cbr -e 512 -c 2 -a 0 -i 16 -k AGT 
- -t 15.209501716 -s 0 -d -1 -p cbr -e 512 -c 2 -a 0 -i 16 -k AGT
h -t 15.209501716 -s 0 -d -1 -p cbr -e 512 -c 2 -a 0 -i 16 -k AGT
+ -t 15.209501716 -s 0 -d 6 -p cbr -e 532 -c 2 -a 0 -i 16 -k RTR 
- -t 15.209501716 -s 0 -d 6 -p cbr -e 532 -c 2 -a 0 -i 16 -k RTR
h -t 15.209501716 -s 0 -d 6 -p cbr -e 532 -c 2 -a 0 -i 16 -k RTR
+ -t 15.216055838 -s 6 -d 21 -p cbr -e 532 -c 2 -a 0 -i 16 -k RTR 
- -t 15.216055838 -s 6 -d 21 -p cbr -e 532 -c 2 -a 0 -i 16 -k RTR
h -t 15.216055838 -s 6 -d 21 -p cbr -e 532 -c 2 -a 0 -i 16 -k RTR
+ -t 15.224288741 -s 21 -d 16 -p cbr -e 532 -c 2 -a 0 -i 15 -k RTR 
- -t 15.224288741 -s 21 -d 16 -p cbr -e 532 -c 2 -a 0 -i 15 -k RTR
h -t 15.224288741 -s 21 -d 16 -p cbr -e 532 -c 2 -a 0 -i 15 -k RTR
+ -t 15.230163723 -s 21 -d 16 -p cbr -e 532 -c 2 -a 0 -i 16 -k RTR 
- -t 15.230163723 -s 21 -d 16 -p cbr -e 532 -c 2 -a 0 -i 16 -k RTR
h -t 15.230163723 -s 21 -d 16 -p cbr -e 532 -c 2 -a 0 -i 16 -k RTR
r -t 15.236157137 -s 16 -d 16 -p cbr -e 512 -c 2 -a 0 -i 15 -k AGT
r -t 15.242451022 -s 16 -d 16 -p cbr -e 512 -c 2 -a 0 -i 16 -k AGT
+ -t 15.277925383 -s 0 -d -1 -p cbr -e 512 -c 2 -a 0 -i 17 -k AGT 
- -t 15.277925383 -s 0 -d -1 -p cbr -e 512 -c 2 -a 0 -i 17 -k AGT
h -t 15.277925383 -s 0 -d -1 -p cbr -e 512 -c 2 -a 0 -i 17 -k AGT
+ -t 15.277925383 -s 0 -d 6 -p cbr -e 532 -c 2 -a 0 -i 17 -k RTR 
- -t 15.277925383 -s 0 -d 6 -p cbr -e 532 -c 2 -a 0 -i 17 -k RTR
h -t 15.277925383 -s 0 -d 6 -p cbr -e 532 -c 2 -a 0 -i 17 -k RTR
+ -t 15.283415383 -s 6 -d 21 -p cbr -e 532 -c 2 -a 0 -i 17 -k RTR 
- -t 15.283415383 -s 6 -d 21 -p cbr -e 532 -c 2 -a 0 -i 17 -k RTR
h -t 15.283415383 -s 6 -d 21 -p cbr -e 532 -c 2 -a 0 -i 17 -k RTR
+ -t 15.289509620 -s 21 -d 16 -p cbr -e 532 -c 2 -a 0 -i 17 -k RTR 
- -t 15.289509620 -s 21 -d 16 -p cbr -e 532 -c 2 -a 0 -i 17 -k RTR
h -t 15.289509620 -s 21 -d 16 -p cbr -e 532 -c 2 -a 0 -i 17 -k RTR
r -t 15.295303034 -s 16 -d 16 -p cbr -e 512 -c 2 -a 0 -i 17 -k AGT
+ -t 15.313662142 -s 0 -d -1 -p cbr -e 512 -c 2 -a 0 -i 18 -k AGT 
- -t 15.313662142 -s 0 -d -1 -p cbr -e 512 -c 2 -a 0 -i 18 -k AGT
h -t 15.313662142 -s 0 -d -1 -p cbr -e 512 -c 2 -a 0 -i 18 -k AGT
+ -t 15.313662142 -s 0 -d 6 -p cbr -e 532 -c 2 -a 0 -i 18 -k RTR 
- -t 15.313662142 -s 0 -d 6 -p cbr -e 532 -c 2 -a 0 -i 18 -k RTR
h -t 15.313662142 -s 0 -d 6 -p cbr -e 532 -c 2 -a 0 -i 18 -k RTR
+ -t 15.319372142 -s 6 -d 21 -p cbr -e 532 -c 2 -a 0 -i 18 -k RTR 
- -t 15.319372142 -s 6 -d 21 -p cbr -e 532 -c 2 -a 0 -i 18 -k RTR
h -t 15.319372142 -s 6 -d 21 -p cbr -e 532 -c 2 -a 0 -i 18 -k RTR
+ -t 15.325486378 -s 21 -d 16 -p cbr -e 532 -c 2 -a 0 -i 18 -k RTR 
- -t 15.325486378 -s 21 -d 16 -p cbr -e 532 -c 2 -a 0 -i 18 -k RTR
h -t 15.325486378 -s 21 -d 16 -p cbr -e 532 -c 2 -a 0 -i 18 -k RTR
r -t 15.331559792 -s 16 -d 16 -p cbr -e 512 -c 2 -a 0 -i 18 -k AGT
+ -t 15.339767667 -s 0 -d -1 -p cbr -e 512 -c 2 -a 0 -i 19 -k AGT 
- -t 15.339767667 -s 0 -d -1 -p cbr -e 512 -c 2 -a 0 -i 19 -k AGT
h -t 15.339767667 -s 0 -d -1 -p cbr -e 512 -c 2 -a 0 -i 19 -k AGT
+ -t 15.339767667 -s 0 -d 6 -p cbr -e 532 -c 2 -a 0 -i 19 -k RTR 
- -t 15.339767667 -s 0 -d 6 -p cbr -e 532 -c 2 -a 0 -i 19 -k RTR
h -t 15.339767667 -s 0 -d 6 -p cbr -e 532 -c 2 -a 0 -i 19 -k RTR
+ -t 15.345717667 -s 6 -d 21 -p cbr -e 532 -c 2 -a 0 -i 19 -k RTR 
- -t 15.345717667 -s 6 -d 21 -p cbr -e 532 -c 2 -a 0 -i 19 -k RTR
h -t 15.345717667 -s 6 -d 21 -p cbr -e 532 -c 2 -a 0 -i 19 -k RTR
+ -t 15.351751903 -s 21 -d 16 -p cbr -e 532 -c 2 -a 0 -i 19 -k RTR 
- -t 15.351751903 -s 21 -d 16 -p cbr -e 532 -c 2 -a 0 -i 19 -k RTR
h -t 15.351751903 -s 21 -d 16 -p cbr -e 532 -c 2 -a 0 -i 19 -k RTR
r -t 15.357525317 -s 16 -d 16 -p cbr -e 512 -c 2 -a 0 -i 19 -k AGT
+ -t 15.390636038 -s 0 -d -1 -p cbr -e 512 -c 2 -a 0 -i 20 -k AGT 
- -t 15.390636038 -s 0 -d -1 -p cbr -e 512 -c 2 -a 0 -i 20 -k AGT
h -t 15.390636038 -s 0 -d -1 -p cbr -e 512 -c 2 -a 0 -i 20 -k AGT
+ -t 15.390636038 -s 0 -d 6 -p cbr -e 532 -c 2 -a 0 -i 20 -k RTR 
- -t 15.390636038 -s 0 -d 6 -p cbr -e 532 -c 2 -a 0 -i 20 -k RTR
h -t 15.390636038 -s 0 -d 6 -p cbr -e 532 -c 2 -a 0 -i 20 -k RTR
+ -t 15.396326038 -s 6 -d 21 -p cbr -e 532 -c 2 -a 0 -i 20 -k RTR 
- -t 15.396326038 -s 6 -d 21 -p cbr -e 532 -c 2 -a 0 -i 20 -k RTR
h -t 15.396326038 -s 6 -d 21 -p cbr -e 532 -c 2 -a 0 -i 20 -k RTR
+ -t 15.402040274 -s 21 -d 16 -p cbr -e 532 -c 2 -a 0 -i 20 -k RTR 
- -t 15.402040274 -s 21 -d 16 -p cbr -e 532 -c 2 -a 0 -i 20 -k RTR
h -t 15.402040274 -s 21 -d 16 -p cbr -e 532 -c 2 -a 0 -i 20 -k RTR
r -t 15.407953688 -s 16 -d 16 -p cbr -e 512 -c 2 -a 0 -i 20 -k AGT
+ -t 15.449873133 -s 0 -d -1 -p cbr -e 512 -c 2 -a 0 -i 21 -k AGT 
- -t 15.449873133 -s 0 -d -1 -p cbr -e 512 -c 2 -a 0 -i 21 -k AGT
h -t 15.449873133 -s 0 -d -1 -p cbr -e 512 -c 2 -a 0 -i 21 -k AGT
+ -t 15.449873133 -s 0 -d 6 -p cbr -e 532 -c 2 -a 0 -i 21 -k RTR 
- -t 15.449873133 -s 0 -d 6 -p cbr -e 532 -c 2 -a 0 -i 21 -k RTR
h -t 15.449873133 -s 0 -d 6 -p cbr -e 532 -c 2 -a 0 -i 21 -k RTR
+ -t 15.455483133 -s 6 -d 21 -p cbr -e 532 -c 2 -a 0 -i 21 -k RTR 
- -t 15.455483133 -s 6 -d 21 -p cbr -e 532 -c 2 -a 0 -i 21 -k RTR
h -t 15.455483133 -s 6 -d 21 -p cbr -e 532 -c 2 -a 0 -i 21 -k RTR
+ -t 15.461417369 -s 21 -d 16 -p cbr -e 532 -c 2 -a 0 -i 21 -k RTR 
- -t 15.461417369 -s 21 -d 16 -p cbr -e 532 -c 2 -a 0 -i 21 -k RTR
h -t 15.461417369 -s 21 -d 16 -p cbr -e 532 -c 2 -a 0 -i 21 -k RTR
r -t 15.467170783 -s 16 -d 16 -p cbr -e 512 -c 2 -a 0 -i 21 -k AGT
+ -t 15.502560356 -s 0 -d -1 -p cbr -e 512 -c 2 -a 0 -i 22 -k AGT 
- -t 15.502560356 -s 0 -d -1 -p cbr -e 512 -c 2 -a 0 -i 22 -k AGT
h -t 15.502560356 -s 0 -d -1 -p cbr -e 512 -c 2 -a 0 -i 22 -k AGT
+ -t 15.502560356 -s 0 -d 6 -p cbr -e 532 -c 2 -a 0 -i 22 -k RTR 
- -t 15.502560356 -s 0 -d 6 -p cbr -e 532 -c 2 -a 0 -i 22 -k RTR
h -t 15.502560356 -s 0 -d 6 -p cbr -e 532 -c 2 -a 0 -i 22 -k RTR
+ -t 15.508590356 -s 6 -d 21 -p cbr -e 532 -c 2 -a 0 -i 22 -k RTR 
- -t 15.508590356 -s 6 -d 21 -p cbr -e 532 -c 2 -a 0 -i 22 -k RTR
h -t 15.508590356 -s 6 -d 21 -p cbr -e 532 -c 2 -a 0 -i 22 -k RTR
+ -t 15.514384593 -s 21 -d 16 -p cbr -e 532 -c 2 -a 0 -i 22 -k RTR 
- -t 15.514384593 -s 21 -d 16 -p cbr -e 532 -c 2 -a 0 -i 22 -k RTR
h -t 15.514384593 -s 21 -d 16 -p cbr -e 532 -c 2 -a 0 -i 22 -k RTR
r -t 15.520578007 -s 16 -d 16 -p cbr -e 512 -c 2 -a 0 -i 22 -k AGT
+ -t 15.554461266 -s 0 -d -1 -p cbr -e 512 -c 2 -a 0 -i 23 -k AGT 
- -t 15.554461266 -s 0 -d -1 -p cbr -e 512 -c 2 -a 0 -i 23 -k AGT
h -t 15.554461266 -s 0 -d -1 -p cbr -e 512 -c 2 -a 0 -i 23 -k AGT
+ -t 15.554461266 -s 0 -d 6 -p cbr -e 532 -c 2 -a 0 -i 23 -k RTR 
- -t 15.554461266 -s 0 -d 6 -p cbr -e 532 -c 2 -a 0 -i 23 -k RTR
h -t 15.554461266 -s 0 -d 6 -p cbr -e 532 -c 2 -a 0 -i 23 -k RTR
+ -t 15.560211266 -s 6 -d 21 -p cbr -e 532 -c 2 -a 0 -i 23 -k RTR 
- -t 15.560211266 -s 6 -d 21 -p cbr -e 532 -c 2 -a 0 -i 23 -k RTR
h -t 15.560211266 -s 6 -d 21 -p cbr -e 532 -c 2 -a 0 -i 23 -k RTR
+ -t 15.566105503 -s 21 -d 16 -p cbr -e 532 -c 2 -a 0 -i 23 -k RTR 
- -t 15.566105503 -s 21 -d 16 -p cbr -e 532 -c 2 -a 0 -i 23 -k RTR
h -t 15.566105503 -s 21 -d 16 -p cbr -e 532 -c 2 -a 0 -i 23 -k RTR
r -t 15.571858917 -s 16 -d 16 -p cbr -e 512 -c 2 -a 0 -i 23 -k AGT
+ -t 15.613886839 -s 0 -d -1 -p cbr -e 512 -c 2 -a 0 -i 24 -k AGT 
- -t 15.613886839 -s 0 -d -1 -p cbr -e 512 -c 2 -a 0 -i 24 -k AGT
h -t 15.613886839 -s 0 -d -1 -p cbr -e 512 -c 2 -a 0 -i 24 -k AGT
+ -t 15.613886839 -s 0 -d 6 -p cbr -e 532 -c 2 -a 0 -i 24 -k RTR 
- -t 15.613886839 -s 0 -d 6 -p cbr -e 532 -c 2 -a 0 -i 24 -k RTR
h -t 15.613886839 -s 0 -d 6 -p cbr -e 532 -c 2 -a 0 -i 24 -k RTR
+ -t 15.619876839 -s 6 -d 21 -p cbr -e 532 -c 2 -a 0 -i 24 -k RTR 
- -t 15.619876839 -s 6 -d 21 -p cbr -e 532 -c 2 -a 0 -i 24 -k RTR
h -t 15.619876839 -s 6 -d 21 -p cbr -e 532 -c 2 -a 0 -i 24 -k RTR
+ -t 15.625691076 -s 21 -d 16 -p cbr -e 532 -c 2 -a 0 -i 24 -k RTR 
- -t 15.625691076 -s 21 -d 16 -p cbr -e 532 -c 2 -a 0 -i 24 -k RTR
h -t 15.625691076 -s 21 -d 16 -p cbr -e 532 -c 2 -a 0 -i 24 -k RTR
r -t 15.631464490 -s 16 -d 16 -p cbr -e 512 -c 2 -a 0 -i 24 -k AGT
+ -t 15.646321881 -s 0 -d -1 -p cbr -e 512 -c 2 -a 0 -i 25 -k AGT 
- -t 15.646321881 -s 0 -d -1 -p cbr -e 512 -c 2 -a 0 -i 25 -k AGT
h -t 15.646321881 -s 0 -d -1 -p cbr -e 512 -c 2 -a 0 -i 25 -k AGT
+ -t 15.646321881 -s 0 -d 6 -p cbr -e 532 -c 2 -a 0 -i 25 -k RTR 
- -t 15.646321881 -s 0 -d 6 -p cbr -e 532 -c 2 -a 0 -i 25 -k RTR
h -t 15.646321881 -s 0 -d 6 -p cbr -e 532 -c 2 -a 0 -i 25 -k RTR
+ -t 15.652091881 -s 6 -d 21 -p cbr -e 532 -c 2 -a 0 -i 25 -k RTR 
- -t 15.652091881 -s 6 -d 21 -p cbr -e 532 -c 2 -a 0 -i 25 -k RTR
h -t 15.652091881 -s 6 -d 21 -p cbr -e 532 -c 2 -a 0 -i 25 -k RTR
+ -t 15.658086117 -s 21 -d 16 -p cbr -e 532 -c 2 -a 0 -i 25 -k RTR 
- -t 15.658086117 -s 21 -d 16 -p cbr -e 532 -c 2 -a 0 -i 25 -k RTR
h -t 15.658086117 -s 21 -d 16 -p cbr -e 532 -c 2 -a 0 -i 25 -k RTR
r -t 15.664199532 -s 16 -d 16 -p cbr -e 512 -c 2 -a 0 -i 25 -k AGT
+ -t 15.694026453 -s 0 -d -1 -p cbr -e 512 -c 2 -a 0 -i 26 -k AGT 
- -t 15.694026453 -s 0 -d -1 -p cbr -e 512 -c 2 -a 0 -i 26 -k AGT
h -t 15.694026453 -s 0 -d -1 -p cbr -e 512 -c 2 -a 0 -i 26 -k AGT
+ -t 15.694026453 -s 0 -d 6 -p cbr -e 532 -c 2 -a 0 -i 26 -k RTR 
- -t 15.694026453 -s 0 -d 6 -p cbr -e 532 -c 2 -a 0 -i 26 -k RTR
h -t 15.694026453 -s 0 -d 6 -p cbr -e 532 -c 2 -a 0 -i 26 -k RTR
+ -t 15.699796453 -s 6 -d 21 -p cbr -e 532 -c 2 -a 0 -i 26 -k RTR 
- -t 15.699796453 -s 6 -d 21 -p cbr -e 532 -c 2 -a 0 -i 26 -k RTR
h -t 15.699796453 -s 6 -d 21 -p cbr -e 532 -c 2 -a 0 -i 26 -k RTR
+ -t 15.705670689 -s 21 -d 16 -p cbr -e 532 -c 2 -a 0 -i 26 -k RTR 
- -t 15.705670689 -s 21 -d 16 -p cbr -e 532 -c 2 -a 0 -i 26 -k RTR
h -t 15.705670689 -s 21 -d 16 -p cbr -e 532 -c 2 -a 0 -i 26 -k RTR
r -t 15.711944103 -s 16 -d 16 -p cbr -e 512 -c 2 -a 0 -i 26 -k AGT
+ -t 15.746632679 -s 0 -d -1 -p cbr -e 512 -c 2 -a 0 -i 27 -k AGT 
- -t 15.746632679 -s 0 -d -1 -p cbr -e 512 -c 2 -a 0 -i 27 -k AGT
h -t 15.746632679 -s 0 -d -1 -p cbr -e 512 -c 2 -a 0 -i 27 -k AGT
+ -t 15.746632679 -s 0 -d 6 -p cbr -e 532 -c 2 -a 0 -i 27 -k RTR 
- -t 15.746632679 -s 0 -d 6 -p cbr -e 532 -c 2 -a 0 -i 27 -k RTR
h -t 15.746632679 -s 0 -d 6 -p cbr -e 532 -c 2 -a 0 -i 27 -k RTR
+ -t 15.752242679 -s 6 -d 21 -p cbr -e 532 -c 2 -a 0 -i 27 -k RTR 
- -t 15.752242679 -s 6 -d 21 -p cbr -e 532 -c 2 -a 0 -i 27 -k RTR
h -t 15.752242679 -s 6 -d 21 -p cbr -e 532 -c 2 -a 0 -i 27 -k RTR
+ -t 15.758196915 -s 21 -d 16 -p cbr -e 532 -c 2 -a 0 -i 27 -k RTR 
- -t 15.758196915 -s 21 -d 16 -p cbr -e 532 -c 2 -a 0 -i 27 -k RTR
h -t 15.758196915 -s 21 -d 16 -p cbr -e 532 -c 2 -a 0 -i 27 -k RTR
r -t 15.764230330 -s 16 -d 16 -p cbr -e 512 -c 2 -a 0 -i 27 -k AGT
+ -t 15.803324542 -s 0 -d -1 -p cbr -e 512 -c 2 -a 0 -i 28 -k AGT 
- -t 15.803324542 -s 0 -d -1 -p cbr -e 512 -c 2 -a 0 -i 28 -k AGT
h -t 15.803324542 -s 0 -d -1 -p cbr -e 512 -c 2 -a 0 -i 28 -k AGT
+ -t 15.803324542 -s 0 -d 6 -p cbr -e 532 -c 2 -a 0 -i 28 -k RTR 
- -t 15.803324542 -s 0 -d 6 -p cbr -e 532 -c 2 -a 0 -i 28 -k RTR
h -t 15.803324542 -s 0 -d 6 -p cbr -e 532 -c 2 -a 0 -i 28 -k RTR
+ -t 15.808794542 -s 6 -d 21 -p cbr -e 532 -c 2 -a 0 -i 28 -k RTR 
- -t 15.808794542 -s 6 -d 21 -p cbr -e 532 -c 2 -a 0 -i 28 -k RTR
h -t 15.808794542 -s 6 -d 21 -p cbr -e 532 -c 2 -a 0 -i 28 -k RTR
+ -t 15.814808778 -s 21 -d 16 -p cbr -e 532 -c 2 -a 0 -i 28 -k RTR 
- -t 15.814808778 -s 21 -d 16 -p cbr -e 532 -c 2 -a 0 -i 28 -k RTR
h -t 15.814808778 -s 21 -d 16 -p cbr -e 532 -c 2 -a 0 -i 28 -k RTR
r -t 15.820722192 -s 16 -d 16 -p cbr -e 512 -c 2 -a 0 -i 28 -k AGT
+ -t 15.870990744 -s 0 -d -1 -p cbr -e 512 -c 2 -a 0 -i 29 -k AGT 
- -t 15.870990744 -s 0 -d -1 -p cbr -e 512 -c 2 -a 0 -i 29 -k AGT
h -t 15.870990744 -s 0 -d -1 -p cbr -e 512 -c 2 -a 0 -i 29 -k AGT
+ -t 15.870990744 -s 0 -d 6 -p cbr -e 532 -c 2 -a 0 -i 29 -k RTR 
- -t 15.870990744 -s 0 -d 6 -p cbr -e 532 -c 2 -a 0 -i 29 -k RTR
h -t 15.870990744 -s 0 -d 6 -p cbr -e 532 -c 2 -a 0 -i 29 -k RTR
+ -t 15.876840744 -s 6 -d 21 -p cbr -e 532 -c 2 -a 0 -i 29 -k RTR 
- -t 15.876840744 -s 6 -d 21 -p cbr -e 532 -c 2 -a 0 -i 29 -k RTR
h -t 15.876840744 -s 6 -d 21 -p cbr -e 532 -c 2 -a 0 -i 29 -k RTR
+ -t 15.882814980 -s 21 -d 16 -p cbr -e 532 -c 2 -a 0 -i 29 -k RTR 
- -t 15.882814980 -s 21 -d 16 -p cbr -e 532 -c 2 -a 0 -i 29 -k RTR
h -t 15.882814980 -s 21 -d 16 -p cbr -e 532 -c 2 -a 0 -i 29 -k RTR
r -t 15.888608394 -s 16 -d 16 -p cbr -e 512 -c 2 -a 0 -i 29 -k AGT
+ -t 15.941605544 -s 0 -d -1 -p cbr -e 512 -c 2 -a 0 -i 30 -k AGT 
- -t 15.941605544 -s 0 -d -1 -p cbr -e 512 -c 2 -a 0 -i 30 -k AGT
h -t 15.941605544 -s 0 -d -1 -p cbr -e 512 -c 2 -a 0 -i 30 -k AGT
+ -t 15.941605544 -s 0 -d 6 -p cbr -e 532 -c 2 -a 0 -i 30 -k RTR 
- -t 15.941605544 -s 0 -d 6 -p cbr -e 532 -c 2 -a 0 -i 30 -k RTR
h -t 15.941605544 -s 0 -d 6 -p cbr -e 532 -c 2 -a 0 -i 30 -k RTR
+ -t 15.947475544 -s 6 -d 21 -p cbr -e 532 -c 2 -a 0 -i 30 -k RTR 
- -t 15.947475544 -s 6 -d 21 -p cbr -e 532 -c 2 -a 0 -i 30 -k RTR
h -t 15.947475544 -s 6 -d 21 -p cbr -e 532 -c 2 -a 0 -i 30 -k RTR
+ -t 15.953449780 -s 21 -d 16 -p cbr -e 532 -c 2 -a 0 -i 30 -k RTR 
- -t 15.953449780 -s 21 -d 16 -p cbr -e 532 -c 2 -a 0 -i 30 -k RTR
h -t 15.953449780 -s 21 -d 16 -p cbr -e 532 -c 2 -a 0 -i 30 -k RTR
r -t 15.959623194 -s 16 -d 16 -p cbr -e 512 -c 2 -a 0 -i 30 -k AGT
+ -t 15.970084796 -s 0 -d -1 -p cbr -e 512 -c 2 -a 0 -i 31 -k AGT 
- -t 15.970084796 -s 0 -d -1 -p cbr -e 512 -c 2 -a 0 -i 31 -k AGT
h -t 15.970084796 -s 0 -d -1 -p cbr -e 512 -c 2 -a 0 -i 31 -k AGT
+ -t 15.970084796 -s 0 -d 6 -p cbr -e 532 -c 2 -a 0 -i 31 -k RTR 
- -t 15.970084796 -s 0 -d 6 -p cbr -e 532 -c 2 -a 0 -i 31 -k RTR
h -t 15.970084796 -s 0 -d 6 -p cbr -e 532 -c 2 -a 0 -i 31 -k RTR
+ -t 15.975934796 -s 6 -d 21 -p cbr -e 532 -c 2 -a 0 -i 31 -k RTR 
- -t 15.975934796 -s 6 -d 21 -p cbr -e 532 -c 2 -a 0 -i 31 -k RTR
h -t 15.975934796 -s 6 -d 21 -p cbr -e 532 -c 2 -a 0 -i 31 -k RTR
+ -t 15.981909032 -s 21 -d 16 -p cbr -e 532 -c 2 -a 0 -i 31 -k RTR 
- -t 15.981909032 -s 21 -d 16 -p cbr -e 532 -c 2 -a 0 -i 31 -k RTR
h -t 15.981909032 -s 21 -d 16 -p cbr -e 532 -c 2 -a 0 -i 31 -k RTR
r -t 15.987662446 -s 16 -d 16 -p cbr -e 512 -c 2 -a 0 -i 31 -k AGT
+ -t 16.044951903 -s 0 -d -1 -p cbr -e 512 -c 2 -a 0 -i 32 -k AGT 
- -t 16.044951903 -s 0 -d -1 -p cbr -e 512 -c 2 -a 0 -i 32 -k AGT
h -t 16.044951903 -s 0 -d -1 -p cbr -e 512 -c 2 -a 0 -i 32 -k AGT
+ -t 16.044951903 -s 0 -d 6 -p cbr -e 532 -c 2 -a 0 -i 32 -k RTR 
- -t 16.044951903 -s 0 -d 6 -p cbr -e 532 -c 2 -a 0 -i 32 -k RTR
h -t 16.044951903 -s 0 -d 6 -p cbr -e 532 -c 2 -a 0 -i 32 -k RTR
+ -t 16.050701903 -s 6 -d 21 -p cbr -e 532 -c 2 -a 0 -i 32 -k RTR 
- -t 16.050701903 -s 6 -d 21 -p cbr -e 532 -c 2 -a 0 -i 32 -k RTR
h -t 16.050701903 -s 6 -d 21 -p cbr -e 532 -c 2 -a 0 -i 32 -k RTR
+ -t 16.056856139 -s 21 -d 16 -p cbr -e 532 -c 2 -a 0 -i 32 -k RTR 
- -t 16.056856139 -s 21 -d 16 -p cbr -e 532 -c 2 -a 0 -i 32 -k RTR
h -t 16.056856139 -s 21 -d 16 -p cbr -e 532 -c 2 -a 0 -i 32 -k RTR
r -t 16.062929553 -s 16 -d 16 -p cbr -e 512 -c 2 -a 0 -i 32 -k AGT
+ -t 16.091720005 -s 0 -d -1 -p cbr -e 512 -c 2 -a 0 -i 33 -k AGT 
- -t 16.091720005 -s 0 -d -1 -p cbr -e 512 -c 2 -a 0 -i 33 -k AGT
h -t 16.091720005 -s 0 -d -1 -p cbr -e 512 -c 2 -a 0 -i 33 -k AGT
+ -t 16.091720005 -s 0 -d 6 -p cbr -e 532 -c 2 -a 0 -i 33 -k RTR 
- -t 16.091720005 -s 0 -d 6 -p cbr -e 532 -c 2 -a 0 -i 33 -k RTR
h -t 16.091720005 -s 0 -d 6 -p cbr -e 532 -c 2 -a 0 -i 33 -k RTR