Sconfig 0.00000 tap: on snoop: rts? on errs? on
Sconfig 0.00000 salvage: on !bd replies? on
Sconfig 0.00000 grat error: on grat reply: on
Sconfig 0.00000 $reply for props: on ring 0 search: on
Sconfig 0.00000 using MOBICACHE
M 13.00000 13 (400.00, 300.00, 0.00), (132.00, 412.00), 3.00
s 15.000000000 _0_ AGT  --- 0 cbr 512 [0 0 0 0] ------- [0:0 23:0 32 0] [0] 0 0
r 15.000000000 _0_ RTR  --- 0 cbr 512 [0 0 0 0] ------- [0:0 23:0 32 0] [0] 0 0
s 15.008890119 _0_ RTR  --- 1 DSR 32 [0 0 0 0] ------- [0:255 23:255 32 0] 1 [1 1] [0 1 0 0->0] [0 0 0 0->0]
r 15.010062452 _5_ RTR  --- 1 DSR 32 [0 ffffffff 0 800] ------- [0:255 23:255 32 0] 1 [1 1] [0 1 0 0->0] [0 0 0 0->0]
r 15.010062452 _1_ RTR  --- 1 DSR 32 [0 ffffffff 0 800] ------- [0:255 23:255 32 0] 1 [1 1] [0 1 0 0->0] [0 0 0 0->0]
r 15.010062590 _6_ RTR  --- 1 DSR 32 [0 ffffffff 0 800] ------- [0:255 23:255 32 0] 1 [1 1] [0 1 0 0->0] [0 0 0 0->0]
r 15.010062785 _10_ RTR  --- 1 DSR 32 [0 ffffffff 0 800] ------- [0:255 23:255 32 0] 1 [1 1] [0 1 0 0->0] [0 0 0 0->0]
r 15.010062785 _2_ RTR  --- 1 DSR 32 [0 ffffffff 0 800] ------- [0:255 23:255 32 0] 1 [1 1] [0 1 0 0->0] [0 0 0 0->0]
r 15.010062864 _11_ RTR  --- 1 DSR 32 [0 ffffffff 0 800] ------- [0:255 23:255 32 0] 1 [1 1] [0 1 0 0->0] [0 0 0 0->0]
r 15.010062864 _7_ RTR  --- 1 DSR 32 [0 ffffffff 0 800] ------- [0:255 23:255 32 0] 1 [1 1] [0 1 0 0->0] [0 0 0 0->0]
s 15.074027578 _0_ RTR  --- 3 DSR 32 [0 0 0 0] ------- [0:255 23:255 32 0] 1 [1 2] [0 2 0 0->16] [0 0 0 0->0]
r 15.074799912 _5_ RTR  --- 3 DSR 32 [0 ffffffff 0 800] ------- [0:255 23:255 32 0] 1 [1 2] [0 2 0 0->16] [0 0 0 0->0]
r 15.074799912 _1_ RTR  --- 3 DSR 32 [0 ffffffff 0 800] ------- [0:255 23:255 32 0] 1 [1 2] [0 2 0 0->16] [0 0 0 0->0]
r 15.074800050 _6_ RTR  --- 3 DSR 32 [0 ffffffff 0 800] ------- [0:255 23:255 32 0] 1 [1 2] [0 2 0 0->16] [0 0 0 0->0]
r 15.074800245 _10_ RTR  --- 3 DSR 32 [0 ffffffff 0 800] ------- [0:255 23:255 32 0] 1 [1 2] [0 2 0 0->16] [0 0 0 0->0]
r 15.074800245 _2_ RTR  --- 3 DSR 32 [0 ffffffff 0 800] ------- [0:255 23:255 32 0] 1 [1 2] [0 2 0 0->16] [0 0 0 0->0]
r 15.074800324 _11_ RTR  --- 3 DSR 32 [0 ffffffff 0 800] ------- [0:255 23:255 32 0] 1 [1 2] [0 2 0 0->16] [0 0 0 0->0]
r 15.074800324 _7_ RTR  --- 3 DSR 32 [0 ffffffff 0 800] ------- [0:255 23:255 32 0] 1 [1 2] [0 2 0 0->16] [0 0 0 0->0]
f 15.077217540 _7_ RTR  --- 3 DSR 48 [0 ffffffff 0 800] ------- [0:255 23:255 32 0] 2 [1 2] [0 2 0 0->16] [0 0 0 0->0]
f 15.078151429 _2_ RTR  --- 3 DSR 48 [0 ffffffff 0 800] ------- [0:255 23:255 32 0] 2 [1 2] [0 2 0 0->16] [0 0 0 0->0]
r 15.078717874 _2_ RTR  --- 3 DSR 48 [0 ffffffff 7 800] ------- [0:255 23:255 32 0] 2 [1 2] [0 2 0 0->16] [0 0 0 0->0]
r 15.078717874 _6_ RTR  --- 3 DSR 48 [0 ffffffff 7 800] ------- [0:255 23:255 32 0] 2 [1 2] [0 2 0 0->16] [0 0 0 0->0]
r 15.078717874 _12_ RTR  --- 3 DSR 48 [0 ffffffff 7 800] ------- [0:255 23:255 32 0] 2 [1 2] [0 2 0 0->16] [0 0 0 0->0]
r 15.078717874 _8_ RTR  --- 3 DSR 48 [0 ffffffff 7 800] ------- [0:255 23:255 32 0] 2 [1 2] [0 2 0 0->16] [0 0 0 0->0]
r 15.078718004 _13_ RTR  --- 3 DSR 48 [0 ffffffff 7 800] ------- [0:255 23:255 32 0] 2 [1 2] [0 2 0 0->16] [0 0 0 0->0]
r 15.078718012 _11_ RTR  --- 3 DSR 48 [0 ffffffff 7 800] ------- [0:255 23:255 32 0] 2 [1 2] [0 2 0 0->16] [0 0 0 0->0]
r 15.078718012 _1_ RTR  --- 3 DSR 48 [0 ffffffff 7 800] ------- [0:255 23:255 32 0] 2 [1 2] [0 2 0 0->16] [0 0 0 0->0]
r 15.078718012 _3_ RTR  --- 3 DSR 48 [0 ffffffff 7 800] ------- [0:255 23:255 32 0] 2 [1 2] [0 2 0 0->16] [0 0 0 0->0]
r 15.078718207 _5_ RTR  --- 3 DSR 48 [0 ffffffff 7 800] ------- [0:255 23:255 32 0] 2 [1 2] [0 2 0 0->16] [0 0 0 0->0]
r 15.078718207 _17_ RTR  --- 3 DSR 48 [0 ffffffff 7 800] ------- [0:255 23:255 32 0] 2 [1 2] [0 2 0 0->16] [0 0 0 0->0]
r 15.078718207 _9_ RTR  --- 3 DSR 48 [0 ffffffff 7 800] ------- [0:255 23:255 32 0] 2 [1 2] [0 2 0 0->16] [0 0 0 0->0]
r 15.078718286 _16_ RTR  --- 3 DSR 48 [0 ffffffff 7 800] ------- [0:255 23:255 32 0] 2 [1 2] [0 2 0 0->16] [0 0 0 0->0]
r 15.078718286 _10_ RTR  --- 3 DSR 48 [0 ffffffff 7 800] ------- [0:255 23:255 32 0] 2 [1 2] [0 2 0 0->16] [0 0 0 0->0]
r 15.078718286 _0_ RTR  --- 3 DSR 48 [0 ffffffff 7 800] ------- [0:255 23:255 32 0] 2 [1 2] [0 2 0 0->16] [0 0 0 0->0]
r 15.078718286 _18_ RTR  --- 3 DSR 48 [0 ffffffff 7 800] ------- [0:255 23:255 32 0] 2 [1 2] [0 2 0 0->16] [0 0 0 0->0]
r 15.078718286 _4_ RTR  --- 3 DSR 48 [0 ffffffff 7 800] ------- [0:255 23:255 32 0] 2 [1 2] [0 2 0 0->16] [0 0 0 0->0]
r 15.078718286 _14_ RTR  --- 3 DSR 48 [0 ffffffff 7 800] ------- [0:255 23:255 32 0] 2 [1 2] [0 2 0 0->16] [0 0 0 0->0]
f 15.079261318 _3_ RTR  --- 3 DSR 68 [0 ffffffff 7 800] ------- [0:255 23:255 32 0] 3 [1 2] [0 2 0 0->16] [0 0 0 0->0]
f 15.080095560 _17_ RTR  --- 3 DSR 68 [0 ffffffff 7 800] ------- [0:255 23:255 32 0] 3 [1 2] [0 2 0 0->16] [0 0 0 0->0]
r 15.080128207 _1_ RTR  --- 3 DSR 48 [0 ffffffff 2 800] ------- [0:255 23:255 32 0] 2 [1 2] [0 2 0 0->16] [0 0 0 0->0]
r 15.080128207 _7_ RTR  --- 3 DSR 48 [0 ffffffff 2 800] ------- [0:255 23:255 32 0] 2 [1 2] [0 2 0 0->16] [0 0 0 0->0]
r 15.080128207 _3_ RTR  --- 3 DSR 48 [0 ffffffff 2 800] ------- [0:255 23:255 32 0] 2 [1 2] [0 2 0 0->16] [0 0 0 0->0]
r 15.080128345 _6_ RTR  --- 3 DSR 48 [0 ffffffff 2 800] ------- [0:255 23:255 32 0] 2 [1 2] [0 2 0 0->16] [0 0 0 0->0]
r 15.080128345 _8_ RTR  --- 3 DSR 48 [0 ffffffff 2 800] ------- [0:255 23:255 32 0] 2 [1 2] [0 2 0 0->16] [0 0 0 0->0]
r 15.080128540 _0_ RTR  --- 3 DSR 48 [0 ffffffff 2 800] ------- [0:255 23:255 32 0] 2 [1 2] [0 2 0 0->16] [0 0 0 0->0]
r 15.080128540 _12_ RTR  --- 3 DSR 48 [0 ffffffff 2 800] ------- [0:255 23:255 32 0] 2 [1 2] [0 2 0 0->16] [0 0 0 0->0]
r 15.080128540 _4_ RTR  --- 3 DSR 48 [0 ffffffff 2 800] ------- [0:255 23:255 32 0] 2 [1 2] [0 2 0 0->16] [0 0 0 0->0]
r 15.080128618 _13_ RTR  --- 3 DSR 48 [0 ffffffff 2 800] ------- [0:255 23:255 32 0] 2 [1 2] [0 2 0 0->16] [0 0 0 0->0]
r 15.080128619 _11_ RTR  --- 3 DSR 48 [0 ffffffff 2 800] ------- [0:255 23:255 32 0] 2 [1 2] [0 2 0 0->16] [0 0 0 0->0]
r 15.080128619 _5_ RTR  --- 3 DSR 48 [0 ffffffff 2 800] ------- [0:255 23:255 32 0] 2 [1 2] [0 2 0 0->16] [0 0 0 0->0]
r 15.080128619 _9_ RTR  --- 3 DSR 48 [0 ffffffff 2 800] ------- [0:255 23:255 32 0] 2 [1 2] [0 2 0 0->16] [0 0 0 0->0]
f 15.080692765 _6_ RTR  --- 3 DSR 48 [0 ffffffff 0 800] ------- [0:255 23:255 32 0] 2 [1 2] [0 2 0 0->16] [0 0 0 0->0]
f 15.080951760 _8_ RTR  --- 3 DSR 68 [0 ffffffff 7 800] ------- [0:255 23:255 32 0] 3 [1 2] [0 2 0 0->16] [0 0 0 0->0]
r 15.081198540 _2_ RTR  --- 3 DSR 68 [0 ffffffff 3 800] ------- [0:255 23:255 32 0] 3 [1 2] [0 2 0 0->16] [0 0 0 0->0]
r 15.081198540 _8_ RTR  --- 3 DSR 68 [0 ffffffff 3 800] ------- [0:255 23:255 32 0] 3 [1 2] [0 2 0 0->16] [0 0 0 0->0]
r 15.081198540 _4_ RTR  --- 3 DSR 68 [0 ffffffff 3 800] ------- [0:255 23:255 32 0] 3 [1 2] [0 2 0 0->16] [0 0 0 0->0]
r 15.081198678 _7_ RTR  --- 3 DSR 68 [0 ffffffff 3 800] ------- [0:255 23:255 32 0] 3 [1 2] [0 2 0 0->16] [0 0 0 0->0]
r 15.081198678 _9_ RTR  --- 3 DSR 68 [0 ffffffff 3 800] ------- [0:255 23:255 32 0] 3 [1 2] [0 2 0 0->16] [0 0 0 0->0]
r 15.081198874 _1_ RTR  --- 3 DSR 68 [0 ffffffff 3 800] ------- [0:255 23:255 32 0] 3 [1 2] [0 2 0 0->16] [0 0 0 0->0]
r 15.081198882 _13_ RTR  --- 3 DSR 68 [0 ffffffff 3 800] ------- [0:255 23:255 32 0] 3 [1 2] [0 2 0 0->16] [0 0 0 0->0]
r 15.081198952 _12_ RTR  --- 3 DSR 68 [0 ffffffff 3 800] ------- [0:255 23:255 32 0] 3 [1 2] [0 2 0 0->16] [0 0 0 0->0]
r 15.081198952 _6_ RTR  --- 3 DSR 68 [0 ffffffff 3 800] ------- [0:255 23:255 32 0] 3 [1 2] [0 2 0 0->16] [0 0 0 0->0]
r 15.081198952 _14_ RTR  --- 3 DSR 68 [0 ffffffff 3 800] ------- [0:255 23:255 32 0] 3 [1 2] [0 2 0 0->16] [0 0 0 0->0]
f 15.081562162 _5_ RTR  --- 3 DSR 48 [0 ffffffff 0 800] ------- [0:255 23:255 32 0] 2 [1 2] [0 2 0 0->16] [0 0 0 0->0]
f 15.081755145 _11_ RTR  --- 3 DSR 48 [0 ffffffff 0 800] ------- [0:255 23:255 32 0] 2 [1 2] [0 2 0 0->16] [0 0 0 0->0]
r 15.082428874 _3_ RTR  --- 3 DSR 68 [0 ffffffff 8 800] ------- [0:255 23:255 32 0] 3 [1 2] [0 2 0 0->16] [0 0 0 0->0]
r 15.082428874 _7_ RTR  --- 3 DSR 68 [0 ffffffff 8 800] ------- [0:255 23:255 32 0] 3 [1 2] [0 2 0 0->16] [0 0 0 0->0]
r 15.082428874 _9_ RTR  --- 3 DSR 68 [0 ffffffff 8 800] ------- [0:255 23:255 32 0] 3 [1 2] [0 2 0 0->16] [0 0 0 0->0]
r 15.082428882 _13_ RTR  --- 3 DSR 68 [0 ffffffff 8 800] ------- [0:255 23:255 32 0] 3 [1 2] [0 2 0 0->16] [0 0 0 0->0]
r 15.082429012 _12_ RTR  --- 3 DSR 68 [0 ffffffff 8 800] ------- [0:255 23:255 32 0] 3 [1 2] [0 2 0 0->16] [0 0 0 0->0]
r 15.082429012 _2_ RTR  --- 3 DSR 68 [0 ffffffff 8 800] ------- [0:255 23:255 32 0] 3 [1 2] [0 2 0 0->16] [0 0 0 0->0]
r 15.082429012 _4_ RTR  --- 3 DSR 68 [0 ffffffff 8 800] ------- [0:255 23:255 32 0] 3 [1 2] [0 2 0 0->16] [0 0 0 0->0]
r 15.082429012 _14_ RTR  --- 3 DSR 68 [0 ffffffff 8 800] ------- [0:255 23:255 32 0] 3 [1 2] [0 2 0 0->16] [0 0 0 0->0]
r 15.082429207 _6_ RTR  --- 3 DSR 68 [0 ffffffff 8 800] ------- [0:255 23:255 32 0] 3 [1 2] [0 2 0 0->16] [0 0 0 0->0]
r 15.082429207 _18_ RTR  --- 3 DSR 68 [0 ffffffff 8 800] ------- [0:255 23:255 32 0] 3 [1 2] [0 2 0 0->16] [0 0 0 0->0]
r 15.082429286 _17_ RTR  --- 3 DSR 68 [0 ffffffff 8 800] ------- [0:255 23:255 32 0] 3 [1 2] [0 2 0 0->16] [0 0 0 0->0]
r 15.082429286 _11_ RTR  --- 3 DSR 68 [0 ffffffff 8 800] ------- [0:255 23:255 32 0] 3 [1 2] [0 2 0 0->16] [0 0 0 0->0]
r 15.082429286 _1_ RTR  --- 3 DSR 68 [0 ffffffff 8 800] ------- [0:255 23:255 32 0] 3 [1 2] [0 2 0 0->16] [0 0 0 0->0]
r 15.082429286 _19_ RTR  --- 3 DSR 68 [0 ffffffff 8 800] ------- [0:255 23:255 32 0] 3 [1 2] [0 2 0 0->16] [0 0 0 0->0]
f 15.082547905 _1_ RTR  --- 3 DSR 48 [0 ffffffff 0 800] ------- [0:255 23:255 32 0] 2 [1 2] [0 2 0 0->16] [0 0 0 0->0]
f 15.082627793 _4_ RTR  --- 3 DSR 68 [0 ffffffff 7 800] ------- [0:255 23:255 32 0] 3 [1 2] [0 2 0 0->16] [0 0 0 0->0]
f 15.082648149 _9_ RTR  --- 3 DSR 68 [0 ffffffff 7 800] ------- [0:255 23:255 32 0] 3 [1 2] [0 2 0 0->16] [0 0 0 0->0]
f 15.083056278 _12_ RTR  --- 3 DSR 68 [0 ffffffff 7 800] ------- [0:255 23:255 32 0] 3 [1 2] [0 2 0 0->16] [0 0 0 0->0]
r 15.083508238 _0_ RTR  --- 3 DSR 48 [0 ffffffff 1 800] ------- [0:255 23:255 32 0] 2 [1 2] [0 2 0 0->16] [0 0 0 0->0]
r 15.083508238 _6_ RTR  --- 3 DSR 48 [0 ffffffff 1 800] ------- [0:255 23:255 32 0] 2 [1 2] [0 2 0 0->16] [0 0 0 0->0]
r 15.083508238 _2_ RTR  --- 3 DSR 48 [0 ffffffff 1 800] ------- [0:255 23:255 32 0] 2 [1 2] [0 2 0 0->16] [0 0 0 0->0]
r 15.083508376 _5_ RTR  --- 3 DSR 48 [0 ffffffff 1 800] ------- [0:255 23:255 32 0] 2 [1 2] [0 2 0 0->16] [0 0 0 0->0]
r 15.083508376 _7_ RTR  --- 3 DSR 48 [0 ffffffff 1 800] ------- [0:255 23:255 32 0] 2 [1 2] [0 2 0 0->16] [0 0 0 0->0]
r 15.083508571 _11_ RTR  --- 3 DSR 48 [0 ffffffff 1 800] ------- [0:255 23:255 32 0] 2 [1 2] [0 2 0 0->16] [0 0 0 0->0]
r 15.083508571 _3_ RTR  --- 3 DSR 48 [0 ffffffff 1 800] ------- [0:255 23:255 32 0] 2 [1 2] [0 2 0 0->16] [0 0 0 0->0]
r 15.083508650 _10_ RTR  --- 3 DSR 48 [0 ffffffff 1 800] ------- [0:255 23:255 32 0] 2 [1 2] [0 2 0 0->16] [0 0 0 0->0]
r 15.083508650 _12_ RTR  --- 3 DSR 48 [0 ffffffff 1 800] ------- [0:255 23:255 32 0] 2 [1 2] [0 2 0 0->16] [0 0 0 0->0]
r 15.083508650 _8_ RTR  --- 3 DSR 48 [0 ffffffff 1 800] ------- [0:255 23:255 32 0] 2 [1 2] [0 2 0 0->16] [0 0 0 0->0]
f 15.083919441 _14_ RTR  --- 3 DSR 68 [0 ffffffff 7 800] ------- [0:255 23:255 32 0] 3 [1 2] [0 2 0 0->16] [0 0 0 0->0]
f 15.084276009 _10_ RTR  --- 3 DSR 48 [0 ffffffff 0 800] ------- [0:255 23:255 32 0] 2 [1 2] [0 2 0 0->16] [0 0 0 0->0]
r 15.084398571 _1_ RTR  --- 3 DSR 48 [0 ffffffff 6 800] ------- [0:255 23:255 32 0] 2 [1 2] [0 2 0 0->16] [0 0 0 0->0]
r 15.084398571 _5_ RTR  --- 3 DSR 48 [0 ffffffff 6 800] ------- [0:255 23:255 32 0] 2 [1 2] [0 2 0 0->16] [0 0 0 0->0]
r 15.084398571 _11_ RTR  --- 3 DSR 48 [0 ffffffff 6 800] ------- [0:255 23:255 32 0] 2 [1 2] [0 2 0 0->16] [0 0 0 0->0]
r 15.084398571 _7_ RTR  --- 3 DSR 48 [0 ffffffff 6 800] ------- [0:255 23:255 32 0] 2 [1 2] [0 2 0 0->16] [0 0 0 0->0]
r 15.084398709 _10_ RTR  --- 3 DSR 48 [0 ffffffff 6 800] ------- [0:255 23:255 32 0] 2 [1 2] [0 2 0 0->16] [0 0 0 0->0]
r 15.084398709 _0_ RTR  --- 3 DSR 48 [0 ffffffff 6 800] ------- [0:255 23:255 32 0] 2 [1 2] [0 2 0 0->16] [0 0 0 0->0]
r 15.084398709 _2_ RTR  --- 3 DSR 48 [0 ffffffff 6 800] ------- [0:255 23:255 32 0] 2 [1 2] [0 2 0 0->16] [0 0 0 0->0]
r 15.084398709 _12_ RTR  --- 3 DSR 48 [0 ffffffff 6 800] ------- [0:255 23:255 32 0] 2 [1 2] [0 2 0 0->16] [0 0 0 0->0]
r 15.084398905 _16_ RTR  --- 3 DSR 48 [0 ffffffff 6 800] ------- [0:255 23:255 32 0] 2 [1 2] [0 2 0 0->16] [0 0 0 0->0]
r 15.084398905 _8_ RTR  --- 3 DSR 48 [0 ffffffff 6 800] ------- [0:255 23:255 32 0] 2 [1 2] [0 2 0 0->16] [0 0 0 0->0]
r 15.084398970 _13_ RTR  --- 3 DSR 48 [0 ffffffff 6 800] ------- [0:255 23:255 32 0] 2 [1 2] [0 2 0 0->16] [0 0 0 0->0]
r 15.084398983 _15_ RTR  --- 3 DSR 48 [0 ffffffff 6 800] ------- [0:255 23:255 32 0] 2 [1 2] [0 2 0 0->16] [0 0 0 0->0]
r 15.084398983 _17_ RTR  --- 3 DSR 48 [0 ffffffff 6 800] ------- [0:255 23:255 32 0] 2 [1 2] [0 2 0 0->16] [0 0 0 0->0]
r 15.084398983 _3_ RTR  --- 3 DSR 48 [0 ffffffff 6 800] ------- [0:255 23:255 32 0] 2 [1 2] [0 2 0 0->16] [0 0 0 0->0]
f 15.084986171 _18_ RTR  --- 3 DSR 68 [0 ffffffff 7 800] ------- [0:255 23:255 32 0] 3 [1 2] [0 2 0 0->16] [0 0 0 0->0]
r 15.085268905 _0_ RTR  --- 3 DSR 48 [0 ffffffff 5 800] ------- [0:255 23:255 32 0] 2 [1 2] [0 2 0 0->16] [0 0 0 0->0]
r 15.085268905 _10_ RTR  --- 3 DSR 48 [0 ffffffff 5 800] ------- [0:255 23:255 32 0] 2 [1 2] [0 2 0 0->16] [0 0 0 0->0]
r 15.085429024 _13_ RTR  --- 3 DSR 68 [0 ffffffff c 800] ------- [0:255 23:255 32 0] 3 [1 2] [0 2 0 0->16] [0 0 0 0->0]
r 15.085429043 _7_ RTR  --- 3 DSR 68 [0 ffffffff c 800] ------- [0:255 23:255 32 0] 3 [1 2] [0 2 0 0->16] [0 0 0 0->0]
r 15.085429043 _17_ RTR  --- 3 DSR 68 [0 ffffffff c 800] ------- [0:255 23:255 32 0] 3 [1 2] [0 2 0 0->16] [0 0 0 0->0]
r 15.085429181 _8_ RTR  --- 3 DSR 68 [0 ffffffff c 800] ------- [0:255 23:255 32 0] 3 [1 2] [0 2 0 0->16] [0 0 0 0->0]
r 15.085429181 _18_ RTR  --- 3 DSR 68 [0 ffffffff c 800] ------- [0:255 23:255 32 0] 3 [1 2] [0 2 0 0->16] [0 0 0 0->0]
r 15.085429376 _22_ RTR  --- 3 DSR 68 [0 ffffffff c 800] ------- [0:255 23:255 32 0] 3 [1 2] [0 2 0 0->16] [0 0 0 0->0]
r 15.085429376 _14_ RTR  --- 3 DSR 68 [0 ffffffff c 800] ------- [0:255 23:255 32 0] 3 [1 2] [0 2 0 0->16] [0 0 0 0->0]
r 15.085429455 _5_ RTR  --- 3 DSR 68 [0 ffffffff c 800] ------- [0:255 23:255 32 0] 3 [1 2] [0 2 0 0->16] [0 0 0 0->0]
r 15.085429455 _23_ RTR  --- 3 DSR 68 [0 ffffffff c 800] ------- [0:255 23:255 32 0] 3 [1 2] [0 2 0 0->16] [0 0 0 0->0]
r 15.085429455 _9_ RTR  --- 3 DSR 68 [0 ffffffff c 800] ------- [0:255 23:255 32 0] 3 [1 2] [0 2 0 0->16] [0 0 0 0->0]
r 15.085429455 _19_ RTR  --- 3 DSR 68 [0 ffffffff c 800] ------- [0:255 23:255 32 0] 3 [1 2] [0 2 0 0->16] [0 0 0 0->0]
r 15.086704238 _4_ RTR  --- 3 DSR 68 [0 ffffffff 9 800] ------- [0:255 23:255 32 0] 3 [1 2] [0 2 0 0->16] [0 0 0 0->0]
r 15.086704238 _8_ RTR  --- 3 DSR 68 [0 ffffffff 9 800] ------- [0:255 23:255 32 0] 3 [1 2] [0 2 0 0->16] [0 0 0 0->0]
r 15.086704238 _14_ RTR  --- 3 DSR 68 [0 ffffffff 9 800] ------- [0:255 23:255 32 0] 3 [1 2] [0 2 0 0->16] [0 0 0 0->0]
r 15.086704376 _3_ RTR  --- 3 DSR 68 [0 ffffffff 9 800] ------- [0:255 23:255 32 0] 3 [1 2] [0 2 0 0->16] [0 0 0 0->0]
r 15.086704395 _13_ RTR  --- 3 DSR 68 [0 ffffffff 9 800] ------- [0:255 23:255 32 0] 3 [1 2] [0 2 0 0->16] [0 0 0 0->0]
r 15.086704571 _7_ RTR  --- 3 DSR 68 [0 ffffffff 9 800] ------- [0:255 23:255 32 0] 3 [1 2] [0 2 0 0->16] [0 0 0 0->0]
r 15.086704571 _19_ RTR  --- 3 DSR 68 [0 ffffffff 9 800] ------- [0:255 23:255 32 0] 3 [1 2] [0 2 0 0->16] [0 0 0 0->0]
r 15.086704650 _18_ RTR  --- 3 DSR 68 [0 ffffffff 9 800] ------- [0:255 23:255 32 0] 3 [1 2] [0 2 0 0->16] [0 0 0 0->0]
r 15.086704650 _12_ RTR  --- 3 DSR 68 [0 ffffffff 9 800] ------- [0:255 23:255 32 0] 3 [1 2] [0 2 0 0->16] [0 0 0 0->0]
r 15.086704650 _2_ RTR  --- 3 DSR 68 [0 ffffffff 9 800] ------- [0:255 23:255 32 0] 3 [1 2] [0 2 0 0->16] [0 0 0 0->0]
f 15.087857088 _15_ RTR  --- 3 DSR 68 [0 ffffffff 6 800] ------- [0:255 23:255 32 0] 3 [1 2] [0 2 0 0->16] [0 0 0 0->0]
r 15.087974976 _13_ RTR  --- 3 DSR 68 [0 ffffffff 12 800] ------- [0:255 23:255 32 0] 3 [1 2] [0 2 0 0->16] [0 0 0 0->0]
r 15.087974983 _17_ RTR  --- 3 DSR 68 [0 ffffffff 12 800] ------- [0:255 23:255 32 0] 3 [1 2] [0 2 0 0->16] [0 0 0 0->0]
r 15.087974983 _23_ RTR  --- 3 DSR 68 [0 ffffffff 12 800] ------- [0:255 23:255 32 0] 3 [1 2] [0 2 0 0->16] [0 0 0 0->0]
r 15.087974983 _19_ RTR  --- 3 DSR 68 [0 ffffffff 12 800] ------- [0:255 23:255 32 0] 3 [1 2] [0 2 0 0->16] [0 0 0 0->0]
r 15.087975121 _22_ RTR  --- 3 DSR 68 [0 ffffffff 12 800] ------- [0:255 23:255 32 0] 3 [1 2] [0 2 0 0->16] [0 0 0 0->0]
r 15.087975121 _12_ RTR  --- 3 DSR 68 [0 ffffffff 12 800] ------- [0:255 23:255 32 0] 3 [1 2] [0 2 0 0->16] [0 0 0 0->0]
r 15.087975121 _14_ RTR  --- 3 DSR 68 [0 ffffffff 12 800] ------- [0:255 23:255 32 0] 3 [1 2] [0 2 0 0->16] [0 0 0 0->0]
r 15.087975121 _24_ RTR  --- 3 DSR 68 [0 ffffffff 12 800] ------- [0:255 23:255 32 0] 3 [1 2] [0 2 0 0->16] [0 0 0 0->0]
r 15.087975317 _8_ RTR  --- 3 DSR 68 [0 ffffffff 12 800] ------- [0:255 23:255 32 0] 3 [1 2] [0 2 0 0->16] [0 0 0 0->0]
r 15.087975317 _16_ RTR  --- 3 DSR 68 [0 ffffffff 12 800] ------- [0:255 23:255 32 0] 3 [1 2] [0 2 0 0->16] [0 0 0 0->0]
r 15.087975395 _7_ RTR  --- 3 DSR 68 [0 ffffffff 12 800] ------- [0:255 23:255 32 0] 3 [1 2] [0 2 0 0->16] [0 0 0 0->0]
r 15.087975395 _21_ RTR  --- 3 DSR 68 [0 ffffffff 12 800] ------- [0:255 23:255 32 0] 3 [1 2] [0 2 0 0->16] [0 0 0 0->0]
r 15.087975395 _11_ RTR  --- 3 DSR 68 [0 ffffffff 12 800] ------- [0:255 23:255 32 0] 3 [1 2] [0 2 0 0->16] [0 0 0 0->0]
r 15.087975395 _9_ RTR  --- 3 DSR 68 [0 ffffffff 12 800] ------- [0:255 23:255 32 0] 3 [1 2] [0 2 0 0->16] [0 0 0 0->0]
f 15.088475337 _16_ RTR  --- 3 DSR 68 [0 ffffffff 7 800] ------- [0:255 23:255 32 0] 3 [1 2] [0 2 0 0->16] [0 0 0 0->0]
f 15.088500148 _13_ RTR  --- 3 DSR 68 [0 ffffffff 7 800] ------- [0:255 23:255 32 0] 3 [1 2] [0 2 0 0->16] [0 0 0 0->0]
r 15.088845729 _6_ RTR  --- 3 DSR 48 [0 ffffffff b 800] ------- [0:255 23:255 32 0] 2 [1 2] [0 2 0 0->16] [0 0 0 0->0]
r 15.088845729 _10_ RTR  --- 3 DSR 48 [0 ffffffff b 800] ------- [0:255 23:255 32 0] 2 [1 2] [0 2 0 0->16] [0 0 0 0->0]
r 15.088845729 _16_ RTR  --- 3 DSR 48 [0 ffffffff b 800] ------- [0:255 23:255 32 0] 2 [1 2] [0 2 0 0->16] [0 0 0 0->0]
r 15.088845729 _12_ RTR  --- 3 DSR 48 [0 ffffffff b 800] ------- [0:255 23:255 32 0] 2 [1 2] [0 2 0 0->16] [0 0 0 0->0]
r 15.088845867 _15_ RTR  --- 3 DSR 48 [0 ffffffff b 800] ------- [0:255 23:255 32 0] 2 [1 2] [0 2 0 0->16] [0 0 0 0->0]
r 15.088845867 _5_ RTR  --- 3 DSR 48 [0 ffffffff b 800] ------- [0:255 23:255 32 0] 2 [1 2] [0 2 0 0->16] [0 0 0 0->0]
r 15.088845867 _7_ RTR  --- 3 DSR 48 [0 ffffffff b 800] ------- [0:255 23:255 32 0] 2 [1 2] [0 2 0 0->16] [0 0 0 0->0]
r 15.088845867 _17_ RTR  --- 3 DSR 48 [0 ffffffff b 800] ------- [0:255 23:255 32 0] 2 [1 2] [0 2 0 0->16] [0 0 0 0->0]
r 15.088846043 _13_ RTR  --- 3 DSR 48 [0 ffffffff b 800] ------- [0:255 23:255 32 0] 2 [1 2] [0 2 0 0->16] [0 0 0 0->0]
r 15.088846062 _1_ RTR  --- 3 DSR 48 [0 ffffffff b 800] ------- [0:255 23:255 32 0] 2 [1 2] [0 2 0 0->16] [0 0 0 0->0]
r 15.088846062 _21_ RTR  --- 3 DSR 48 [0 ffffffff b 800] ------- [0:255 23:255 32 0] 2 [1 2] [0 2 0 0->16] [0 0 0 0->0]
r 15.088846141 _20_ RTR  --- 3 DSR 48 [0 ffffffff b 800] ------- [0:255 23:255 32 0] 2 [1 2] [0 2 0 0->16] [0 0 0 0->0]
r 15.088846141 _0_ RTR  --- 3 DSR 48 [0 ffffffff b 800] ------- [0:255 23:255 32 0] 2 [1 2] [0 2 0 0->16] [0 0 0 0->0]
r 15.088846141 _2_ RTR  --- 3 DSR 48 [0 ffffffff b 800] ------- [0:255 23:255 32 0] 2 [1 2] [0 2 0 0->16] [0 0 0 0->0]
r 15.088846141 _22_ RTR  --- 3 DSR 48 [0 ffffffff b 800] ------- [0:255 23:255 32 0] 2 [1 2] [0 2 0 0->16] [0 0 0 0->0]
r 15.088846141 _8_ RTR  --- 3 DSR 48 [0 ffffffff b 800] ------- [0:255 23:255 32 0] 2 [1 2] [0 2 0 0->16] [0 0 0 0->0]
r 15.088846141 _18_ RTR  --- 3 DSR 48 [0 ffffffff b 800] ------- [0:255 23:255 32 0] 2 [1 2] [0 2 0 0->16] [0 0 0 0->0]
f 15.089143950 _24_ RTR  --- 3 DSR 92 [0 ffffffff 12 800] ------- [0:255 23:255 32 0] 4 [1 2] [0 2 0 0->16] [0 0 0 0->0]
r 15.089896200 _16_ RTR  --- 3 DSR 68 [0 ffffffff 11 800] ------- [0:255 23:255 32 0] 3 [1 2] [0 2 0 0->16] [0 0 0 0->0]
r 15.089896200 _22_ RTR  --- 3 DSR 68 [0 ffffffff 11 800] ------- [0:255 23:255 32 0] 3 [1 2] [0 2 0 0->16] [0 0 0 0->0]
r 15.089896319 _13_ RTR  --- 3 DSR 68 [0 ffffffff 11 800] ------- [0:255 23:255 32 0] 3 [1 2] [0 2 0 0->16] [0 0 0 0->0]
r 15.089896338 _21_ RTR  --- 3 DSR 68 [0 ffffffff 11 800] ------- [0:255 23:255 32 0] 3 [1 2] [0 2 0 0->16] [0 0 0 0->0]
r 15.089896385 _8_ RTR  --- 3 DSR 68 [0 ffffffff d 800] ------- [0:255 23:255 32 0] 3 [1 2] [0 2 0 0->16] [0 0 0 0->0]
r 15.089896395 _14_ RTR  --- 3 DSR 68 [0 ffffffff d 800] ------- [0:255 23:255 32 0] 3 [1 2] [0 2 0 0->16] [0 0 0 0->0]
r 15.089896495 _17_ RTR  --- 3 DSR 68 [0 ffffffff d 800] ------- [0:255 23:255 32 0] 3 [1 2] [0 2 0 0->16] [0 0 0 0->0]
r 15.089896534 _9_ RTR  --- 3 DSR 68 [0 ffffffff d 800] ------- [0:255 23:255 32 0] 3 [1 2] [0 2 0 0->16] [0 0 0 0->0]
s 15.090582027 _23_ RTR  --- 5 DSR 60 [0 0 0 0] ------- [23:255 0:255 254 18] 4 [0 2] [1 2 4 0->23] [0 0 0 0->0]
f 15.090830680 _22_ RTR  --- 3 DSR 92 [0 ffffffff c 800] ------- [0:255 23:255 32 0] 4 [1 2] [0 2 0 0->16] [0 0 0 0->0]
f 15.091067923 _19_ RTR  --- 3 DSR 92 [0 ffffffff 8 800] ------- [0:255 23:255 32 0] 4 [1 2] [0 2 0 0->16] [0 0 0 0->0]
r 15.091643123 _19_ RTR  --- 3 DSR 92 [0 ffffffff 18 800] ------- [0:255 23:255 32 0] 4 [1 2] [0 2 0 0->16] [0 0 0 0->0]
r 15.091643123 _23_ RTR  --- 3 DSR 92 [0 ffffffff 18 800] ------- [0:255 23:255 32 0] 4 [1 2] [0 2 0 0->16] [0 0 0 0->0]
r 15.091643261 _18_ RTR  --- 3 DSR 92 [0 ffffffff 18 800] ------- [0:255 23:255 32 0] 4 [1 2] [0 2 0 0->16] [0 0 0 0->0]
r 15.091643456 _14_ RTR  --- 3 DSR 92 [0 ffffffff 18 800] ------- [0:255 23:255 32 0] 4 [1 2] [0 2 0 0->16] [0 0 0 0->0]
r 15.091643456 _22_ RTR  --- 3 DSR 92 [0 ffffffff 18 800] ------- [0:255 23:255 32 0] 4 [1 2] [0 2 0 0->16] [0 0 0 0->0]
r 15.091643535 _17_ RTR  --- 3 DSR 92 [0 ffffffff 18 800] ------- [0:255 23:255 32 0] 4 [1 2] [0 2 0 0->16] [0 0 0 0->0]
r 15.091643537 _13_ RTR  --- 3 DSR 92 [0 ffffffff 18 800] ------- [0:255 23:255 32 0] 4 [1 2] [0 2 0 0->16] [0 0 0 0->0]
r 15.092733790 _9_ RTR  --- 3 DSR 68 [0 ffffffff e 800] ------- [0:255 23:255 32 0] 3 [1 2] [0 2 0 0->16] [0 0 0 0->0]
r 15.092733790 _19_ RTR  --- 3 DSR 68 [0 ffffffff e 800] ------- [0:255 23:255 32 0] 3 [1 2] [0 2 0 0->16] [0 0 0 0->0]
r 15.092733809 _13_ RTR  --- 3 DSR 68 [0 ffffffff e 800] ------- [0:255 23:255 32 0] 3 [1 2] [0 2 0 0->16] [0 0 0 0->0]
r 15.092733928 _18_ RTR  --- 3 DSR 68 [0 ffffffff e 800] ------- [0:255 23:255 32 0] 3 [1 2] [0 2 0 0->16] [0 0 0 0->0]
r 15.092733928 _8_ RTR  --- 3 DSR 68 [0 ffffffff e 800] ------- [0:255 23:255 32 0] 3 [1 2] [0 2 0 0->16] [0 0 0 0->0]
r 15.092734123 _4_ RTR  --- 3 DSR 68 [0 ffffffff e 800] ------- [0:255 23:255 32 0] 3 [1 2] [0 2 0 0->16] [0 0 0 0->0]
r 15.092734123 _12_ RTR  --- 3 DSR 68 [0 ffffffff e 800] ------- [0:255 23:255 32 0] 3 [1 2] [0 2 0 0->16] [0 0 0 0->0]
r 15.092734123 _24_ RTR  --- 3 DSR 68 [0 ffffffff e 800] ------- [0:255 23:255 32 0] 3 [1 2] [0 2 0 0->16] [0 0 0 0->0]
r 15.092734202 _23_ RTR  --- 3 DSR 68 [0 ffffffff e 800] ------- [0:255 23:255 32 0] 3 [1 2] [0 2 0 0->16] [0 0 0 0->0]
r 15.092734202 _3_ RTR  --- 3 DSR 68 [0 ffffffff e 800] ------- [0:255 23:255 32 0] 3 [1 2] [0 2 0 0->16] [0 0 0 0->0]
r 15.092734202 _17_ RTR  --- 3 DSR 68 [0 ffffffff e 800] ------- [0:255 23:255 32 0] 3 [1 2] [0 2 0 0->16] [0 0 0 0->0]
r 15.092734202 _7_ RTR  --- 3 DSR 68 [0 ffffffff e 800] ------- [0:255 23:255 32 0] 3 [1 2] [0 2 0 0->16] [0 0 0 0->0]
r 15.093824456 _3_ RTR  --- 3 DSR 68 [0 ffffffff 4 800] ------- [0:255 23:255 32 0] 3 [1 2] [0 2 0 0->16] [0 0 0 0->0]
r 15.093824456 _9_ RTR  --- 3 DSR 68 [0 ffffffff 4 800] ------- [0:255 23:255 32 0] 3 [1 2] [0 2 0 0->16] [0 0 0 0->0]
r 15.093824595 _8_ RTR  --- 3 DSR 68 [0 ffffffff 4 800] ------- [0:255 23:255 32 0] 3 [1 2] [0 2 0 0->16] [0 0 0 0->0]
r 15.093824790 _2_ RTR  --- 3 DSR 68 [0 ffffffff 4 800] ------- [0:255 23:255 32 0] 3 [1 2] [0 2 0 0->16] [0 0 0 0->0]
r 15.093824790 _14_ RTR  --- 3 DSR 68 [0 ffffffff 4 800] ------- [0:255 23:255 32 0] 3 [1 2] [0 2 0 0->16] [0 0 0 0->0]
r 15.093824869 _7_ RTR  --- 3 DSR 68 [0 ffffffff 4 800] ------- [0:255 23:255 32 0] 3 [1 2] [0 2 0 0->16] [0 0 0 0->0]
r 15.093824884 _13_ RTR  --- 3 DSR 68 [0 ffffffff 4 800] ------- [0:255 23:255 32 0] 3 [1 2] [0 2 0 0->16] [0 0 0 0->0]
f 15.093835410 _21_ RTR  --- 3 DSR 92 [0 ffffffff 12 800] ------- [0:255 23:255 32 0] 4 [1 2] [0 2 0 0->16] [0 0 0 0->0]
s 15.094827847 _23_ RTR  --- 4 DSR 60 [0 0 0 0] ------- [23:255 0:255 254 12] 4 [0 2] [1 2 4 0->23] [0 0 0 0->0]
r 15.095099947 _5_ RTR  --- 3 DSR 48 [0 ffffffff a 800] ------- [0:255 23:255 32 0] 2 [1 2] [0 2 0 0->16] [0 0 0 0->0]
r 15.095259871 _17_ RTR  --- 3 DSR 68 [0 ffffffff 10 800] ------- [0:255 23:255 32 0] 3 [1 2] [0 2 0 0->16] [0 0 0 0->0]
s 15.096014439 _23_ RTR  --- 7 DSR 60 [0 0 0 0] ------- [23:255 0:255 254 14] 4 [0 2] [1 2 4 0->23] [0 0 0 0->0]
s 15.096634417 _23_ RTR  --- 6 DSR 68 [0 0 0 0] ------- [23:255 0:255 254 24] 5 [0 2] [1 2 5 0->23] [0 0 0 0->0]
f 15.096805671 _20_ RTR  --- 3 DSR 68 [0 ffffffff b 800] ------- [0:255 23:255 32 0] 3 [1 2] [0 2 0 0->16] [0 0 0 0->0]
r 15.096846595 _16_ RTR  --- 3 DSR 92 [0 ffffffff 15 800] ------- [0:255 23:255 32 0] 4 [1 2] [0 2 0 0->16] [0 0 0 0->0]
r 15.096846595 _20_ RTR  --- 3 DSR 92 [0 ffffffff 15 800] ------- [0:255 23:255 32 0] 4 [1 2] [0 2 0 0->16] [0 0 0 0->0]
r 15.096846595 _22_ RTR  --- 3 DSR 92 [0 ffffffff 15 800] ------- [0:255 23:255 32 0] 4 [1 2] [0 2 0 0->16] [0 0 0 0->0]
r 15.096846733 _15_ RTR  --- 3 DSR 92 [0 ffffffff 15 800] ------- [0:255 23:255 32 0] 4 [1 2] [0 2 0 0->16] [0 0 0 0->0]
r 15.096846733 _17_ RTR  --- 3 DSR 92 [0 ffffffff 15 800] ------- [0:255 23:255 32 0] 4 [1 2] [0 2 0 0->16] [0 0 0 0->0]
r 15.096846928 _11_ RTR  --- 3 DSR 92 [0 ffffffff 15 800] ------- [0:255 23:255 32 0] 4 [1 2] [0 2 0 0->16] [0 0 0 0->0]
r 15.096846928 _23_ RTR  --- 3 DSR 92 [0 ffffffff 15 800] ------- [0:255 23:255 32 0] 4 [1 2] [0 2 0 0->16] [0 0 0 0->0]
r 15.096847007 _10_ RTR  --- 3 DSR 92 [0 ffffffff 15 800] ------- [0:255 23:255 32 0] 4 [1 2] [0 2 0 0->16] [0 0 0 0->0]
r 15.096847007 _12_ RTR  --- 3 DSR 92 [0 ffffffff 15 800] ------- [0:255 23:255 32 0] 4 [1 2] [0 2 0 0->16] [0 0 0 0->0]
r 15.096847007 _18_ RTR  --- 3 DSR 92 [0 ffffffff 15 800] ------- [0:255 23:255 32 0] 4 [1 2] [0 2 0 0->16] [0 0 0 0->0]
r 15.098068928 _17_ RTR  --- 3 DSR 92 [0 ffffffff 16 800] ------- [0:255 23:255 32 0] 4 [1 2] [0 2 0 0->16] [0 0 0 0->0]
r 15.098068928 _21_ RTR  --- 3 DSR 92 [0 ffffffff 16 800] ------- [0:255 23:255 32 0] 4 [1 2] [0 2 0 0->16] [0 0 0 0->0]
r 15.098068928 _23_ RTR  --- 3 DSR 92 [0 ffffffff 16 800] ------- [0:255 23:255 32 0] 4 [1 2] [0 2 0 0->16] [0 0 0 0->0]
r 15.098069066 _16_ RTR  --- 3 DSR 92 [0 ffffffff 16 800] ------- [0:255 23:255 32 0] 4 [1 2] [0 2 0 0->16] [0 0 0 0->0]
r 15.098069066 _18_ RTR  --- 3 DSR 92 [0 ffffffff 16 800] ------- [0:255 23:255 32 0] 4 [1 2] [0 2 0 0->16] [0 0 0 0->0]
r 15.098069261 _12_ RTR  --- 3 DSR 92 [0 ffffffff 16 800] ------- [0:255 23:255 32 0] 4 [1 2] [0 2 0 0->16] [0 0 0 0->0]
r 15.098069261 _20_ RTR  --- 3 DSR 92 [0 ffffffff 16 800] ------- [0:255 23:255 32 0] 4 [1 2] [0 2 0 0->16] [0 0 0 0->0]
r 15.098069261 _24_ RTR  --- 3 DSR 92 [0 ffffffff 16 800] ------- [0:255 23:255 32 0] 4 [1 2] [0 2 0 0->16] [0 0 0 0->0]
r 15.098069324 _13_ RTR  --- 3 DSR 92 [0 ffffffff 16 800] ------- [0:255 23:255 32 0] 4 [1 2] [0 2 0 0->16] [0 0 0 0->0]
r 15.098069340 _11_ RTR  --- 3 DSR 92 [0 ffffffff 16 800] ------- [0:255 23:255 32 0] 4 [1 2] [0 2 0 0->16] [0 0 0 0->0]
r 15.098069340 _15_ RTR  --- 3 DSR 92 [0 ffffffff 16 800] ------- [0:255 23:255 32 0] 4 [1 2] [0 2 0 0->16] [0 0 0 0->0]
r 15.098069340 _19_ RTR  --- 3 DSR 92 [0 ffffffff 16 800] ------- [0:255 23:255 32 0] 4 [1 2] [0 2 0 0->16] [0 0 0 0->0]
r 15.099571673 _14_ RTR  --- 3 DSR 92 [0 ffffffff 13 800] ------- [0:255 23:255 32 0] 4 [1 2] [0 2 0 0->16] [0 0 0 0->0]
r 15.099571673 _18_ RTR  --- 3 DSR 92 [0 ffffffff 13 800] ------- [0:255 23:255 32 0] 4 [1 2] [0 2 0 0->16] [0 0 0 0->0]
r 15.099571673 _24_ RTR  --- 3 DSR 92 [0 ffffffff 13 800] ------- [0:255 23:255 32 0] 4 [1 2] [0 2 0 0->16] [0 0 0 0->0]
r 15.099571811 _23_ RTR  --- 3 DSR 92 [0 ffffffff 13 800] ------- [0:255 23:255 32 0] 4 [1 2] [0 2 0 0->16] [0 0 0 0->0]
r 15.099571820 _13_ RTR  --- 3 DSR 92 [0 ffffffff 13 800] ------- [0:255 23:255 32 0] 4 [1 2] [0 2 0 0->16] [0 0 0 0->0]
r 15.099572007 _9_ RTR  --- 3 DSR 92 [0 ffffffff 13 800] ------- [0:255 23:255 32 0] 4 [1 2] [0 2 0 0->16] [0 0 0 0->0]
r 15.099572007 _17_ RTR  --- 3 DSR 92 [0 ffffffff 13 800] ------- [0:255 23:255 32 0] 4 [1 2] [0 2 0 0->16] [0 0 0 0->0]
r 15.099572085 _8_ RTR  --- 3 DSR 92 [0 ffffffff 13 800] ------- [0:255 23:255 32 0] 4 [1 2] [0 2 0 0->16] [0 0 0 0->0]
r 15.099572085 _22_ RTR  --- 3 DSR 92 [0 ffffffff 13 800] ------- [0:255 23:255 32 0] 4 [1 2] [0 2 0 0->16] [0 0 0 0->0]
r 15.099572085 _12_ RTR  --- 3 DSR 92 [0 ffffffff 13 800] ------- [0:255 23:255 32 0] 4 [1 2] [0 2 0 0->16] [0 0 0 0->0]
s 15.100044830 _23_ RTR  --- 8 DSR 68 [0 0 0 0] ------- [23:255 0:255 254 21] 5 [0 2] [1 2 5 0->23] [0 0 0 0->0]
r 15.101214811 _18_ RTR  --- 5 DSR 60 [13a 12 17 800] ------- [23:255 0:255 254 18] 4 [0 2] [1 2 4 0->23] [0 0 0 0->0]
f 15.101214811 _18_ RTR  --- 5 DSR 60 [13a 12 17 800] ------- [23:255 0:255 253 7] 4 [0 2] [1 2 4 0->23] [0 0 0 0->0]
s 15.101358713 _23_ RTR  --- 10 DSR 68 [0 0 0 0] ------- [23:255 0:255 254 19] 5 [0 2] [1 2 5 0->23] [0 0 0 0->0]
r 15.103576559 _19_ RTR  --- 10 DSR 68 [13a 13 17 800] ------- [23:255 0:255 254 19] 5 [0 2] [1 2 5 0->23] [0 0 0 0->0]