Sconfig 0.00000 tap: on snoop: rts? on errs? on
Sconfig 0.00000 salvage: on !bd replies? on
Sconfig 0.00000 grat error: on grat reply: on
Sconfig 0.00000 $reply for props: on ring 0 search: on
Sconfig 0.00000 using MOBICACHE
s 15.000000000 _0_ AGT  --- 0 cbr 512 [0 0 0 0] ------- [0:0 13:0 32 0] [0] 0 0
r 15.000000000 _0_ RTR  --- 0 cbr 512 [0 0 0 0] ------- [0:0 13:0 32 0] [0] 0 0
s 15.005455305 _0_ RTR  --- 1 DSR 32 [0 0 0 0] ------- [0:255 13:255 32 0] 1 [1 1] [0 1 0 0->0] [0 0 0 0->0]
r 15.006547638 _3_ RTR  --- 1 DSR 32 [0 ffffffff 0 800] ------- [0:255 13:255 32 0] 1 [1 1] [0 1 0 0->0] [0 0 0 0->0]
r 15.006547971 _6_ RTR  --- 1 DSR 32 [0 ffffffff 0 800] ------- [0:255 13:255 32 0] 1 [1 1] [0 1 0 0->0] [0 0 0 0->0]
r 15.006547971 _1_ RTR  --- 1 DSR 32 [0 ffffffff 0 800] ------- [0:255 13:255 32 0] 1 [1 1] [0 1 0 0->0] [0 0 0 0->0]
r 15.006548050 _4_ RTR  --- 1 DSR 32 [0 ffffffff 0 800] ------- [0:255 13:255 32 0] 1 [1 1] [0 1 0 0->0] [0 0 0 0->0]
s 15.046528272 _0_ AGT  --- 3 cbr 512 [0 0 0 0] ------- [0:0 13:0 32 0] [1] 0 0
r 15.046528272 _0_ RTR  --- 3 cbr 512 [0 0 0 0] ------- [0:0 13:0 32 0] [1] 0 0
s 15.055719706 _0_ RTR  --- 4 DSR 32 [0 0 0 0] ------- [0:255 13:255 32 0] 1 [1 2] [0 2 0 0->16] [0 0 0 0->0]
r 15.056932040 _3_ RTR  --- 4 DSR 32 [0 ffffffff 0 800] ------- [0:255 13:255 32 0] 1 [1 2] [0 2 0 0->16] [0 0 0 0->0]
r 15.056932373 _6_ RTR  --- 4 DSR 32 [0 ffffffff 0 800] ------- [0:255 13:255 32 0] 1 [1 2] [0 2 0 0->16] [0 0 0 0->0]
r 15.056932373 _1_ RTR  --- 4 DSR 32 [0 ffffffff 0 800] ------- [0:255 13:255 32 0] 1 [1 2] [0 2 0 0->16] [0 0 0 0->0]
r 15.056932452 _4_ RTR  --- 4 DSR 32 [0 ffffffff 0 800] ------- [0:255 13:255 32 0] 1 [1 2] [0 2 0 0->16] [0 0 0 0->0]
f 15.060442494 _4_ RTR  --- 4 DSR 48 [0 ffffffff 0 800] ------- [0:255 13:255 32 0] 2 [1 2] [0 2 0 0->16] [0 0 0 0->0]
f 15.061683492 _6_ RTR  --- 4 DSR 48 [0 ffffffff 0 800] ------- [0:255 13:255 32 0] 2 [1 2] [0 2 0 0->16] [0 0 0 0->0]
r 15.061722827 _1_ RTR  --- 4 DSR 48 [0 ffffffff 4 800] ------- [0:255 13:255 32 0] 2 [1 2] [0 2 0 0->16] [0 0 0 0->0]
r 15.061722827 _7_ RTR  --- 4 DSR 48 [0 ffffffff 4 800] ------- [0:255 13:255 32 0] 2 [1 2] [0 2 0 0->16] [0 0 0 0->0]
r 15.061723161 _3_ RTR  --- 4 DSR 48 [0 ffffffff 4 800] ------- [0:255 13:255 32 0] 2 [1 2] [0 2 0 0->16] [0 0 0 0->0]
r 15.061723161 _10_ RTR  --- 4 DSR 48 [0 ffffffff 4 800] ------- [0:255 13:255 32 0] 2 [1 2] [0 2 0 0->16] [0 0 0 0->0]
r 15.061723161 _5_ RTR  --- 4 DSR 48 [0 ffffffff 4 800] ------- [0:255 13:255 32 0] 2 [1 2] [0 2 0 0->16] [0 0 0 0->0]
r 15.061723239 _6_ RTR  --- 4 DSR 48 [0 ffffffff 4 800] ------- [0:255 13:255 32 0] 2 [1 2] [0 2 0 0->16] [0 0 0 0->0]
r 15.061723239 _0_ RTR  --- 4 DSR 48 [0 ffffffff 4 800] ------- [0:255 13:255 32 0] 2 [1 2] [0 2 0 0->16] [0 0 0 0->0]
r 15.061723239 _2_ RTR  --- 4 DSR 48 [0 ffffffff 4 800] ------- [0:255 13:255 32 0] 2 [1 2] [0 2 0 0->16] [0 0 0 0->0]
r 15.061723239 _8_ RTR  --- 4 DSR 48 [0 ffffffff 4 800] ------- [0:255 13:255 32 0] 2 [1 2] [0 2 0 0->16] [0 0 0 0->0]
r 15.062723825 _3_ RTR  --- 4 DSR 48 [0 ffffffff 6 800] ------- [0:255 13:255 32 0] 2 [1 2] [0 2 0 0->16] [0 0 0 0->0]
r 15.062723825 _9_ RTR  --- 4 DSR 48 [0 ffffffff 6 800] ------- [0:255 13:255 32 0] 2 [1 2] [0 2 0 0->16] [0 0 0 0->0]
r 15.062724159 _0_ RTR  --- 4 DSR 48 [0 ffffffff 6 800] ------- [0:255 13:255 32 0] 2 [1 2] [0 2 0 0->16] [0 0 0 0->0]
r 15.062724159 _12_ RTR  --- 4 DSR 48 [0 ffffffff 6 800] ------- [0:255 13:255 32 0] 2 [1 2] [0 2 0 0->16] [0 0 0 0->0]
r 15.062724159 _7_ RTR  --- 4 DSR 48 [0 ffffffff 6 800] ------- [0:255 13:255 32 0] 2 [1 2] [0 2 0 0->16] [0 0 0 0->0]
r 15.062724237 _4_ RTR  --- 4 DSR 48 [0 ffffffff 6 800] ------- [0:255 13:255 32 0] 2 [1 2] [0 2 0 0->16] [0 0 0 0->0]
r 15.062724237 _10_ RTR  --- 4 DSR 48 [0 ffffffff 6 800] ------- [0:255 13:255 32 0] 2 [1 2] [0 2 0 0->16] [0 0 0 0->0]
f 15.063281376 _7_ RTR  --- 4 DSR 68 [0 ffffffff 4 800] ------- [0:255 13:255 32 0] 3 [1 2] [0 2 0 0->16] [0 0 0 0->0]
f 15.063790048 _10_ RTR  --- 4 DSR 68 [0 ffffffff 4 800] ------- [0:255 13:255 32 0] 3 [1 2] [0 2 0 0->16] [0 0 0 0->0]
f 15.064752477 _3_ RTR  --- 4 DSR 48 [0 ffffffff 0 800] ------- [0:255 13:255 32 0] 2 [1 2] [0 2 0 0->16] [0 0 0 0->0]
r 15.064761709 _4_ RTR  --- 4 DSR 68 [0 ffffffff 7 800] ------- [0:255 13:255 32 0] 3 [1 2] [0 2 0 0->16] [0 0 0 0->0]
r 15.064761709 _10_ RTR  --- 4 DSR 68 [0 ffffffff 7 800] ------- [0:255 13:255 32 0] 3 [1 2] [0 2 0 0->16] [0 0 0 0->0]
r 15.064762042 _1_ RTR  --- 4 DSR 68 [0 ffffffff 7 800] ------- [0:255 13:255 32 0] 3 [1 2] [0 2 0 0->16] [0 0 0 0->0]
r 15.064762042 _6_ RTR  --- 4 DSR 68 [0 ffffffff 7 800] ------- [0:255 13:255 32 0] 3 [1 2] [0 2 0 0->16] [0 0 0 0->0]
r 15.064762042 _13_ RTR  --- 4 DSR 68 [0 ffffffff 7 800] ------- [0:255 13:255 32 0] 3 [1 2] [0 2 0 0->16] [0 0 0 0->0]
r 15.064762042 _8_ RTR  --- 4 DSR 68 [0 ffffffff 7 800] ------- [0:255 13:255 32 0] 3 [1 2] [0 2 0 0->16] [0 0 0 0->0]
r 15.064762121 _9_ RTR  --- 4 DSR 68 [0 ffffffff 7 800] ------- [0:255 13:255 32 0] 3 [1 2] [0 2 0 0->16] [0 0 0 0->0]
r 15.064762121 _3_ RTR  --- 4 DSR 68 [0 ffffffff 7 800] ------- [0:255 13:255 32 0] 3 [1 2] [0 2 0 0->16] [0 0 0 0->0]
r 15.064762121 _5_ RTR  --- 4 DSR 68 [0 ffffffff 7 800] ------- [0:255 13:255 32 0] 3 [1 2] [0 2 0 0->16] [0 0 0 0->0]
r 15.064762121 _11_ RTR  --- 4 DSR 68 [0 ffffffff 7 800] ------- [0:255 13:255 32 0] 3 [1 2] [0 2 0 0->16] [0 0 0 0->0]
r 15.065852810 _0_ RTR  --- 4 DSR 48 [0 ffffffff 3 800] ------- [0:255 13:255 32 0] 2 [1 2] [0 2 0 0->16] [0 0 0 0->0]
r 15.065852810 _6_ RTR  --- 4 DSR 48 [0 ffffffff 3 800] ------- [0:255 13:255 32 0] 2 [1 2] [0 2 0 0->16] [0 0 0 0->0]
r 15.065853143 _9_ RTR  --- 4 DSR 48 [0 ffffffff 3 800] ------- [0:255 13:255 32 0] 2 [1 2] [0 2 0 0->16] [0 0 0 0->0]
r 15.065853143 _4_ RTR  --- 4 DSR 48 [0 ffffffff 3 800] ------- [0:255 13:255 32 0] 2 [1 2] [0 2 0 0->16] [0 0 0 0->0]
r 15.065853222 _1_ RTR  --- 4 DSR 48 [0 ffffffff 3 800] ------- [0:255 13:255 32 0] 2 [1 2] [0 2 0 0->16] [0 0 0 0->0]
r 15.065853222 _7_ RTR  --- 4 DSR 48 [0 ffffffff 3 800] ------- [0:255 13:255 32 0] 2 [1 2] [0 2 0 0->16] [0 0 0 0->0]
f 15.065901741 _2_ RTR  --- 4 DSR 68 [0 ffffffff 4 800] ------- [0:255 13:255 32 0] 3 [1 2] [0 2 0 0->16] [0 0 0 0->0]
s 15.066046082 _13_ RTR  --- 7 DSR 60 [0 0 0 0] ------- [13:255 0:255 254 7] 4 [0 2] [1 2 4 0->13] [0 0 0 0->0]
f 15.066183692 _1_ RTR  --- 4 DSR 48 [0 ffffffff 0 800] ------- [0:255 13:255 32 0] 2 [1 2] [0 2 0 0->16] [0 0 0 0->0]
f 15.067090636 _9_ RTR  --- 4 DSR 68 [0 ffffffff 6 800] ------- [0:255 13:255 32 0] 3 [1 2] [0 2 0 0->16] [0 0 0 0->0]
r 15.067124026 _4_ RTR  --- 4 DSR 48 [0 ffffffff 1 800] ------- [0:255 13:255 32 0] 2 [1 2] [0 2 0 0->16] [0 0 0 0->0]
r 15.067124359 _0_ RTR  --- 4 DSR 48 [0 ffffffff 1 800] ------- [0:255 13:255 32 0] 2 [1 2] [0 2 0 0->16] [0 0 0 0->0]
r 15.067124359 _7_ RTR  --- 4 DSR 48 [0 ffffffff 1 800] ------- [0:255 13:255 32 0] 2 [1 2] [0 2 0 0->16] [0 0 0 0->0]
r 15.067124359 _2_ RTR  --- 4 DSR 48 [0 ffffffff 1 800] ------- [0:255 13:255 32 0] 2 [1 2] [0 2 0 0->16] [0 0 0 0->0]
r 15.067124438 _3_ RTR  --- 4 DSR 48 [0 ffffffff 1 800] ------- [0:255 13:255 32 0] 2 [1 2] [0 2 0 0->16] [0 0 0 0->0]
r 15.067124438 _5_ RTR  --- 4 DSR 48 [0 ffffffff 1 800] ------- [0:255 13:255 32 0] 2 [1 2] [0 2 0 0->16] [0 0 0 0->0]
r 15.067124438 _15_ RTR  --- 4 DSR 48 [0 ffffffff 1 800] ------- [0:255 13:255 32 0] 2 [1 2] [0 2 0 0->16] [0 0 0 0->0]
f 15.067765093 _8_ RTR  --- 4 DSR 68 [0 ffffffff 4 800] ------- [0:255 13:255 32 0] 3 [1 2] [0 2 0 0->16] [0 0 0 0->0]
r 15.068494692 _5_ RTR  --- 4 DSR 68 [0 ffffffff 2 800] ------- [0:255 13:255 32 0] 3 [1 2] [0 2 0 0->16] [0 0 0 0->0]
r 15.068494692 _15_ RTR  --- 4 DSR 68 [0 ffffffff 2 800] ------- [0:255 13:255 32 0] 3 [1 2] [0 2 0 0->16] [0 0 0 0->0]
r 15.068495026 _1_ RTR  --- 4 DSR 68 [0 ffffffff 2 800] ------- [0:255 13:255 32 0] 3 [1 2] [0 2 0 0->16] [0 0 0 0->0]
r 15.068495026 _8_ RTR  --- 4 DSR 68 [0 ffffffff 2 800] ------- [0:255 13:255 32 0] 3 [1 2] [0 2 0 0->16] [0 0 0 0->0]
r 15.068495104 _4_ RTR  --- 4 DSR 68 [0 ffffffff 2 800] ------- [0:255 13:255 32 0] 3 [1 2] [0 2 0 0->16] [0 0 0 0->0]
f 15.068841490 _5_ RTR  --- 4 DSR 68 [0 ffffffff 4 800] ------- [0:255 13:255 32 0] 3 [1 2] [0 2 0 0->16] [0 0 0 0->0]
f 15.069136389 _12_ RTR  --- 4 DSR 68 [0 ffffffff 6 800] ------- [0:255 13:255 32 0] 3 [1 2] [0 2 0 0->16] [0 0 0 0->0]
r 15.069705359 _5_ RTR  --- 4 DSR 68 [0 ffffffff 8 800] ------- [0:255 13:255 32 0] 3 [1 2] [0 2 0 0->16] [0 0 0 0->0]
r 15.069705359 _11_ RTR  --- 4 DSR 68 [0 ffffffff 8 800] ------- [0:255 13:255 32 0] 3 [1 2] [0 2 0 0->16] [0 0 0 0->0]
r 15.069705692 _2_ RTR  --- 4 DSR 68 [0 ffffffff 8 800] ------- [0:255 13:255 32 0] 3 [1 2] [0 2 0 0->16] [0 0 0 0->0]
r 15.069705692 _7_ RTR  --- 4 DSR 68 [0 ffffffff 8 800] ------- [0:255 13:255 32 0] 3 [1 2] [0 2 0 0->16] [0 0 0 0->0]
r 15.069705692 _14_ RTR  --- 4 DSR 68 [0 ffffffff 8 800] ------- [0:255 13:255 32 0] 3 [1 2] [0 2 0 0->16] [0 0 0 0->0]
r 15.069705771 _10_ RTR  --- 4 DSR 68 [0 ffffffff 8 800] ------- [0:255 13:255 32 0] 3 [1 2] [0 2 0 0->16] [0 0 0 0->0]
r 15.069705771 _4_ RTR  --- 4 DSR 68 [0 ffffffff 8 800] ------- [0:255 13:255 32 0] 3 [1 2] [0 2 0 0->16] [0 0 0 0->0]
f 15.069739443 _15_ RTR  --- 4 DSR 68 [0 ffffffff 1 800] ------- [0:255 13:255 32 0] 3 [1 2] [0 2 0 0->16] [0 0 0 0->0]
r 15.070876104 _7_ RTR  --- 4 DSR 68 [0 ffffffff a 800] ------- [0:255 13:255 32 0] 3 [1 2] [0 2 0 0->16] [0 0 0 0->0]
r 15.070876104 _13_ RTR  --- 4 DSR 68 [0 ffffffff a 800] ------- [0:255 13:255 32 0] 3 [1 2] [0 2 0 0->16] [0 0 0 0->0]
r 15.070876438 _4_ RTR  --- 4 DSR 68 [0 ffffffff a 800] ------- [0:255 13:255 32 0] 3 [1 2] [0 2 0 0->16] [0 0 0 0->0]
r 15.070876438 _9_ RTR  --- 4 DSR 68 [0 ffffffff a 800] ------- [0:255 13:255 32 0] 3 [1 2] [0 2 0 0->16] [0 0 0 0->0]
r 15.070876438 _11_ RTR  --- 4 DSR 68 [0 ffffffff a 800] ------- [0:255 13:255 32 0] 3 [1 2] [0 2 0 0->16] [0 0 0 0->0]
r 15.070876516 _12_ RTR  --- 4 DSR 68 [0 ffffffff a 800] ------- [0:255 13:255 32 0] 3 [1 2] [0 2 0 0->16] [0 0 0 0->0]
r 15.070876516 _6_ RTR  --- 4 DSR 68 [0 ffffffff a 800] ------- [0:255 13:255 32 0] 3 [1 2] [0 2 0 0->16] [0 0 0 0->0]
r 15.070876516 _8_ RTR  --- 4 DSR 68 [0 ffffffff a 800] ------- [0:255 13:255 32 0] 3 [1 2] [0 2 0 0->16] [0 0 0 0->0]
r 15.070876516 _14_ RTR  --- 4 DSR 68 [0 ffffffff a 800] ------- [0:255 13:255 32 0] 3 [1 2] [0 2 0 0->16] [0 0 0 0->0]
r 15.072580104 _7_ RTR  --- 7 DSR 60 [13a 7 d 800] ------- [13:255 0:255 254 7] 4 [0 2] [1 2 4 0->13] [0 0 0 0->0]
f 15.072580104 _7_ RTR  --- 7 DSR 60 [13a 7 d 800] ------- [13:255 0:255 253 4] 4 [0 2] [1 2 4 0->13] [0 0 0 0->0]
f 15.073350923 _11_ RTR  --- 4 DSR 92 [0 ffffffff 7 800] ------- [0:255 13:255 32 0] 4 [1 2] [0 2 0 0->16] [0 0 0 0->0]
r 15.074637104 _4_ RTR  --- 7 DSR 60 [13a 4 7 800] ------- [13:255 0:255 253 4] 4 [0 2] [1 2 4 0->13] [0 0 0 0->0]
f 15.074637104 _4_ RTR  --- 7 DSR 60 [13a 4 7 800] ------- [13:255 0:255 252 0] 4 [0 2] [1 2 4 0->13] [0 0 0 0->0]
s 15.075602392 _13_ RTR  --- 8 DSR 60 [0 0 0 0] ------- [13:255 0:255 254 10] 4 [0 2] [1 2 4 0->13] [0 0 0 0->0]
r 15.075982104 _2_ RTR  --- 4 DSR 68 [0 ffffffff 5 800] ------- [0:255 13:255 32 0] 3 [1 2] [0 2 0 0->16] [0 0 0 0->0]
r 15.075982104 _8_ RTR  --- 4 DSR 68 [0 ffffffff 5 800] ------- [0:255 13:255 32 0] 3 [1 2] [0 2 0 0->16] [0 0 0 0->0]
r 15.075982438 _4_ RTR  --- 4 DSR 68 [0 ffffffff 5 800] ------- [0:255 13:255 32 0] 3 [1 2] [0 2 0 0->16] [0 0 0 0->0]
r 15.075982438 _11_ RTR  --- 4 DSR 68 [0 ffffffff 5 800] ------- [0:255 13:255 32 0] 3 [1 2] [0 2 0 0->16] [0 0 0 0->0]
r 15.075982438 _15_ RTR  --- 4 DSR 68 [0 ffffffff 5 800] ------- [0:255 13:255 32 0] 3 [1 2] [0 2 0 0->16] [0 0 0 0->0]
r 15.075982516 _7_ RTR  --- 4 DSR 68 [0 ffffffff 5 800] ------- [0:255 13:255 32 0] 3 [1 2] [0 2 0 0->16] [0 0 0 0->0]
r 15.075982516 _1_ RTR  --- 4 DSR 68 [0 ffffffff 5 800] ------- [0:255 13:255 32 0] 3 [1 2] [0 2 0 0->16] [0 0 0 0->0]
r 15.077204771 _8_ RTR  --- 4 DSR 92 [0 ffffffff b 800] ------- [0:255 13:255 32 0] 4 [1 2] [0 2 0 0->16] [0 0 0 0->0]
r 15.077204771 _14_ RTR  --- 4 DSR 92 [0 ffffffff b 800] ------- [0:255 13:255 32 0] 4 [1 2] [0 2 0 0->16] [0 0 0 0->0]
r 15.077205104 _5_ RTR  --- 4 DSR 92 [0 ffffffff b 800] ------- [0:255 13:255 32 0] 4 [1 2] [0 2 0 0->16] [0 0 0 0->0]
r 15.077205104 _10_ RTR  --- 4 DSR 92 [0 ffffffff b 800] ------- [0:255 13:255 32 0] 4 [1 2] [0 2 0 0->16] [0 0 0 0->0]
r 15.077205183 _13_ RTR  --- 4 DSR 92 [0 ffffffff b 800] ------- [0:255 13:255 32 0] 4 [1 2] [0 2 0 0->16] [0 0 0 0->0]
r 15.077205183 _7_ RTR  --- 4 DSR 92 [0 ffffffff b 800] ------- [0:255 13:255 32 0] 4 [1 2] [0 2 0 0->16] [0 0 0 0->0]
f 15.078509066 _14_ RTR  --- 4 DSR 92 [0 ffffffff 8 800] ------- [0:255 13:255 32 0] 4 [1 2] [0 2 0 0->16] [0 0 0 0->0]
r 15.079208183 _10_ RTR  --- 8 DSR 60 [13a a d 800] ------- [13:255 0:255 254 10] 4 [0 2] [1 2 4 0->13] [0 0 0 0->0]
f 15.079208183 _10_ RTR  --- 8 DSR 60 [13a a d 800] ------- [13:255 0:255 253 4] 4 [0 2] [1 2 4 0->13] [0 0 0 0->0]
r 15.081237086 _0_ RTR  --- 7 DSR 60 [13a 0 4 800] ------- [13:255 0:255 252 0] 4 [0 2] [1 2 4 0->13] [0 0 0 0->0]
SFESTs 15.081237086 _0_ 0 [0 -> 13] 1(1) to 4 [0 |4 7 13 ]
SFESTs 15.081237086 _0_ 3 [0 -> 13] 1(1) to 4 [0 |4 7 13 ]
s 15.081237086 _0_ RTR  --- 0 cbr 556 [0 0 0 0] ------- [0:0 13:0 32 4] [0] 0 0
r 15.082883876 _11_ RTR  --- 4 DSR 92 [0 ffffffff e 800] ------- [0:255 13:255 32 0] 4 [1 2] [0 2 0 0->16] [0 0 0 0->0]
r 15.082884209 _8_ RTR  --- 4 DSR 92 [0 ffffffff e 800] ------- [0:255 13:255 32 0] 4 [1 2] [0 2 0 0->16] [0 0 0 0->0]
r 15.082884209 _13_ RTR  --- 4 DSR 92 [0 ffffffff e 800] ------- [0:255 13:255 32 0] 4 [1 2] [0 2 0 0->16] [0 0 0 0->0]
s 15.085890085 _13_ RTR  --- 10 DSR 68 [0 0 0 0] ------- [13:255 0:255 254 14] 5 [0 2] [1 2 5 0->13] [0 0 0 0->0]
s 15.086213333 _13_ RTR  --- 9 DSR 68 [0 0 0 0] ------- [13:255 0:255 254 11] 5 [0 2] [1 2 5 0->13] [0 0 0 0->0]
r 15.089003322 _4_ RTR  --- 0 cbr 556 [13a 4 0 800] ------- [0:0 13:0 32 4] [0] 1 0
f 15.089003322 _4_ RTR  --- 0 cbr 556 [13a 4 0 800] ------- [0:0 13:0 31 7] [0] 1 0
r 15.091111778 _4_ RTR  --- 8 DSR 60 [13a 4 a 800] ------- [13:255 0:255 253 4] 4 [0 2] [1 2 4 0->13] [0 0 0 0->0]
f 15.091111778 _4_ RTR  --- 8 DSR 60 [13a 4 a 800] ------- [13:255 0:255 252 0] 4 [0 2] [1 2 4 0->13] [0 0 0 0->0]
r 15.097096778 _7_ RTR  --- 0 cbr 556 [13a 7 4 800] ------- [0:0 13:0 31 7] [0] 2 0
f 15.097096778 _7_ RTR  --- 0 cbr 556 [13a 7 4 800] ------- [0:0 13:0 30 13] [0] 2 0
r 15.099135348 _0_ RTR  --- 8 DSR 60 [13a 0 4 800] ------- [13:255 0:255 252 0] 4 [0 2] [1 2 4 0->13] [0 0 0 0->0]
s 15.101741575 _0_ AGT  --- 11 cbr 512 [0 0 0 0] ------- [0:0 13:0 32 0] [2] 0 0
r 15.101741575 _0_ RTR  --- 11 cbr 512 [0 0 0 0] ------- [0:0 13:0 32 0] [2] 0 0
SFESTs 15.101741575 _0_ 11 [0 -> 13] 1(1) to 4 [0 |4 7 13 ]
s 15.101741575 _0_ RTR  --- 11 cbr 556 [0 0 0 0] ------- [0:0 13:0 32 4] [2] 0 0
r 15.105426291 _13_ RTR  --- 0 cbr 556 [13a d 7 800] ------- [0:0 13:0 30 13] [0] 3 0
r 15.105426291 _13_ AGT  --- 0 cbr 512 [13a d 7 800] ------- [0:0 13:0 30 13] [0] 3 0
r 15.106771369 _6_ RTR  --- 4 DSR 68 [0 ffffffff 9 800] ------- [0:255 13:255 32 0] 3 [1 2] [0 2 0 0->16] [0 0 0 0->0]
r 15.106771369 _12_ RTR  --- 4 DSR 68 [0 ffffffff 9 800] ------- [0:255 13:255 32 0] 3 [1 2] [0 2 0 0->16] [0 0 0 0->0]
r 15.106771703 _3_ RTR  --- 4 DSR 68 [0 ffffffff 9 800] ------- [0:255 13:255 32 0] 3 [1 2] [0 2 0 0->16] [0 0 0 0->0]
r 15.106771703 _10_ RTR  --- 4 DSR 68 [0 ffffffff 9 800] ------- [0:255 13:255 32 0] 3 [1 2] [0 2 0 0->16] [0 0 0 0->0]
r 15.106771781 _13_ RTR  --- 4 DSR 68 [0 ffffffff 9 800] ------- [0:255 13:255 32 0] 3 [1 2] [0 2 0 0->16] [0 0 0 0->0]
r 15.107821703 _9_ RTR  --- 4 DSR 68 [0 ffffffff c 800] ------- [0:255 13:255 32 0] 3 [1 2] [0 2 0 0->16] [0 0 0 0->0]
r 15.107822036 _6_ RTR  --- 4 DSR 68 [0 ffffffff c 800] ------- [0:255 13:255 32 0] 3 [1 2] [0 2 0 0->16] [0 0 0 0->0]
r 15.107822036 _13_ RTR  --- 4 DSR 68 [0 ffffffff c 800] ------- [0:255 13:255 32 0] 3 [1 2] [0 2 0 0->16] [0 0 0 0->0]
r 15.107822115 _10_ RTR  --- 4 DSR 68 [0 ffffffff c 800] ------- [0:255 13:255 32 0] 3 [1 2] [0 2 0 0->16] [0 0 0 0->0]
r 15.109850036 _14_ RTR  --- 10 DSR 68 [13a e d 800] ------- [13:255 0:255 254 14] 5 [0 2] [1 2 5 0->13] [0 0 0 0->0]
f 15.109850036 _14_ RTR  --- 10 DSR 68 [13a e d 800] ------- [13:255 0:255 253 8] 5 [0 2] [1 2 5 0->13] [0 0 0 0->0]
s 15.111237086 _0_ RTR  --- 3 cbr 556 [0 0 0 0] ------- [0:0 13:0 32 4] [1] 0 0
r 15.112992036 _8_ RTR  --- 10 DSR 68 [13a 8 e 800] ------- [13:255 0:255 253 8] 5 [0 2] [1 2 5 0->13] [0 0 0 0->0]
f 15.112992036 _8_ RTR  --- 10 DSR 68 [13a 8 e 800] ------- [13:255 0:255 252 4] 5 [0 2] [1 2 5 0->13] [0 0 0 0->0]
s 15.114109145 _13_ RTR  --- 13 DSR 60 [0 0 0 0] ------- [13:255 0:255 254 12] 4 [0 2] [1 2 4 0->13] [0 0 0 0->0]
s 15.115070141 _13_ RTR  --- 12 DSR 60 [0 0 0 0] ------- [13:255 0:255 254 9] 4 [0 2] [1 2 4 0->13] [0 0 0 0->0]
r 15.115161920 _4_ RTR  --- 10 DSR 68 [13a 4 8 800] ------- [13:255 0:255 252 4] 5 [0 2] [1 2 5 0->13] [0 0 0 0->0]
f 15.115161920 _4_ RTR  --- 10 DSR 68 [13a 4 8 800] ------- [13:255 0:255 251 0] 5 [0 2] [1 2 5 0->13] [0 0 0 0->0]
r 15.121358902 _4_ RTR  --- 11 cbr 556 [13a 4 0 800] ------- [0:0 13:0 32 4] [2] 1 0
f 15.121358902 _4_ RTR  --- 11 cbr 556 [13a 4 0 800] ------- [0:0 13:0 31 7] [2] 1 0
r 15.123381138 _0_ RTR  --- 10 DSR 68 [13a 0 4 800] ------- [13:255 0:255 251 0] 5 [0 2] [1 2 5 0->13] [0 0 0 0->0]
r 15.129527374 _4_ RTR  --- 3 cbr 556 [13a 4 0 800] ------- [0:0 13:0 32 4] [1] 1 0
f 15.129527374 _4_ RTR  --- 3 cbr 556 [13a 4 0 800] ------- [0:0 13:0 31 7] [1] 1 0
r 15.135552374 _7_ RTR  --- 11 cbr 556 [13a 7 4 800] ------- [0:0 13:0 31 7] [2] 2 0
f 15.135552374 _7_ RTR  --- 11 cbr 556 [13a 7 4 800] ------- [0:0 13:0 30 13] [2] 2 0
r 15.141658374 _13_ RTR  --- 11 cbr 556 [13a d 7 800] ------- [0:0 13:0 30 13] [2] 3 0
r 15.141658374 _13_ AGT  --- 11 cbr 512 [13a d 7 800] ------- [0:0 13:0 30 13] [2] 3 0
r 15.143740610 _11_ RTR  --- 9 DSR 68 [13a b d 800] ------- [13:255 0:255 254 11] 5 [0 2] [1 2 5 0->13] [0 0 0 0->0]
f 15.143740610 _11_ RTR  --- 9 DSR 68 [13a b d 800] ------- [13:255 0:255 253 7] 5 [0 2] [1 2 5 0->13] [0 0 0 0->0]
r 15.150070553 _7_ RTR  --- 3 cbr 556 [13a 7 4 800] ------- [0:0 13:0 31 7] [1] 2 0
f 15.150070553 _7_ RTR  --- 3 cbr 556 [13a 7 4 800] ------- [0:0 13:0 30 13] [1] 2 0
r 15.152223398 _7_ RTR  --- 9 DSR 68 [13a 7 b 800] ------- [13:255 0:255 253 7] 5 [0 2] [1 2 5 0->13] [0 0 0 0->0]
f 15.152223398 _7_ RTR  --- 9 DSR 68 [13a 7 b 800] ------- [13:255 0:255 252 4] 5 [0 2] [1 2 5 0->13] [0 0 0 0->0]
r 15.154202301 _9_ RTR  --- 12 DSR 60 [13a 9 d 800] ------- [13:255 0:255 254 9] 4 [0 2] [1 2 4 0->13] [0 0 0 0->0]
f 15.154202301 _9_ RTR  --- 12 DSR 60 [13a 9 d 800] ------- [13:255 0:255 253 6] 4 [0 2] [1 2 4 0->13] [0 0 0 0->0]
r 15.160229046 _13_ RTR  --- 3 cbr 556 [13a d 7 800] ------- [0:0 13:0 30 13] [1] 3 0
r 15.160229046 _13_ AGT  --- 3 cbr 512 [13a d 7 800] ------- [0:0 13:0 30 13] [1] 3 0
r 15.162186792 _6_ RTR  --- 12 DSR 60 [13a 6 9 800] ------- [13:255 0:255 253 6] 4 [0 2] [1 2 4 0->13] [0 0 0 0->0]
f 15.162186792 _6_ RTR  --- 12 DSR 60 [13a 6 9 800] ------- [13:255 0:255 252 0] 4 [0 2] [1 2 4 0->13] [0 0 0 0->0]
r 15.164368458 _4_ RTR  --- 9 DSR 68 [13a 4 7 800] ------- [13:255 0:255 252 4] 5 [0 2] [1 2 5 0->13] [0 0 0 0->0]
f 15.164368458 _4_ RTR  --- 9 DSR 68 [13a 4 7 800] ------- [13:255 0:255 251 0] 5 [0 2] [1 2 5 0->13] [0 0 0 0->0]
r 15.166590694 _0_ RTR  --- 9 DSR 68 [13a 0 4 800] ------- [13:255 0:255 251 0] 5 [0 2] [1 2 5 0->13] [0 0 0 0->0]
r 15.168649361 _0_ RTR  --- 12 DSR 60 [13a 0 6 800] ------- [13:255 0:255 252 0] 4 [0 2] [1 2 4 0->13] [0 0 0 0->0]
r 15.171052852 _12_ RTR  --- 13 DSR 60 [13a c d 800] ------- [13:255 0:255 254 12] 4 [0 2] [1 2 4 0->13] [0 0 0 0->0]
f 15.171052852 _12_ RTR  --- 13 DSR 60 [13a c d 800] ------- [13:255 0:255 253 6] 4 [0 2] [1 2 4 0->13] [0 0 0 0->0]
s 15.172561880 _0_ AGT  --- 14 cbr 512 [0 0 0 0] ------- [0:0 13:0 32 0] [3] 0 0
r 15.172561880 _0_ RTR  --- 14 cbr 512 [0 0 0 0] ------- [0:0 13:0 32 0] [3] 0 0
SFs 15.172561880 _0_ 14 [0 -> 13] 1(0) to 4 
s 15.172561880 _0_ RTR  --- 14 cbr 532 [0 0 0 0] ------- [0:0 13:0 32 4] [3] 0 0
r 15.173310852 _6_ RTR  --- 13 DSR 60 [13a 6 c 800] ------- [13:255 0:255 253 6] 4 [0 2] [1 2 4 0->13] [0 0 0 0->0]
f 15.173310852 _6_ RTR  --- 13 DSR 60 [13a 6 c 800] ------- [13:255 0:255 252 0] 4 [0 2] [1 2 4 0->13] [0 0 0 0->0]
r 15.179235754 _4_ RTR  --- 14 cbr 532 [13a 4 0 800] ------- [0:0 13:0 32 4] [3] 1 0
SFf 15.179235754 _4_ 14 [0 -> 13] 1 to 7
f 15.179235754 _4_ RTR  --- 14 cbr 532 [13a 4 0 800] ------- [0:0 13:0 31 7] [3] 1 0
r 15.181214500 _0_ RTR  --- 13 DSR 60 [13a 0 6 800] ------- [13:255 0:255 252 0] 4 [0 2] [1 2 4 0->13] [0 0 0 0->0]
r 15.187408245 _7_ RTR  --- 14 cbr 532 [13a 7 4 800] ------- [0:0 13:0 31 7] [3] 2 0
SFf 15.187408245 _7_ 14 [0 -> 13] 1 to 13
f 15.187408245 _7_ RTR  --- 14 cbr 532 [13a 7 4 800] ------- [0:0 13:0 30 13] [3] 2 0
r 15.193522245 _13_ RTR  --- 14 cbr 532 [13a d 7 800] ------- [0:0 13:0 30 13] [3] 3 0
r 15.193522245 _13_ AGT  --- 14 cbr 512 [13a d 7 800] ------- [0:0 13:0 30 13] [3] 3 0
s 15.239429809 _0_ AGT  --- 15 cbr 512 [0 0 0 0] ------- [0:0 13:0 32 0] [4] 0 0
r 15.239429809 _0_ RTR  --- 15 cbr 512 [0 0 0 0] ------- [0:0 13:0 32 0] [4] 0 0
SFs 15.239429809 _0_ 15 [0 -> 13] 1(0) to 4 
s 15.239429809 _0_ RTR  --- 15 cbr 532 [0 0 0 0] ------- [0:0 13:0 32 4] [4] 0 0
r 15.245340045 _4_ RTR  --- 15 cbr 532 [13a 4 0 800] ------- [0:0 13:0 32 4] [4] 1 0
SFf 15.245340045 _4_ 15 [0 -> 13] 1 to 7
f 15.245340045 _4_ RTR  --- 15 cbr 532 [13a 4 0 800] ------- [0:0 13:0 31 7] [4] 1 0
r 15.251253045 _7_ RTR  --- 15 cbr 532 [13a 7 4 800] ------- [0:0 13:0 31 7] [4] 2 0
SFf 15.251253045 _7_ 15 [0 -> 13] 1 to 13
f 15.251253045 _7_ RTR  --- 15 cbr 532 [13a 7 4 800] ------- [0:0 13:0 30 13] [4] 2 0
r 15.257047045 _13_ RTR  --- 15 cbr 532 [13a d 7 800] ------- [0:0 13:0 30 13] [4] 3 0
r 15.257047045 _13_ AGT  --- 15 cbr 512 [13a d 7 800] ------- [0:0 13:0 30 13] [4] 3 0
s 15.306810095 _0_ AGT  --- 16 cbr 512 [0 0 0 0] ------- [0:0 13:0 32 0] [5] 0 0
r 15.306810095 _0_ RTR  --- 16 cbr 512 [0 0 0 0] ------- [0:0 13:0 32 0] [5] 0 0
SFs 15.306810095 _0_ 16 [0 -> 13] 1(0) to 4 
s 15.306810095 _0_ RTR  --- 16 cbr 532 [0 0 0 0] ------- [0:0 13:0 32 4] [5] 0 0
r 15.312640331 _4_ RTR  --- 16 cbr 532 [13a 4 0 800] ------- [0:0 13:0 32 4] [5] 1 0
SFf 15.312640331 _4_ 16 [0 -> 13] 1 to 7
f 15.312640331 _4_ RTR  --- 16 cbr 532 [13a 4 0 800] ------- [0:0 13:0 31 7] [5] 1 0
r 15.318533331 _7_ RTR  --- 16 cbr 532 [13a 7 4 800] ------- [0:0 13:0 31 7] [5] 2 0
SFf 15.318533331 _7_ 16 [0 -> 13] 1 to 13
f 15.318533331 _7_ RTR  --- 16 cbr 532 [13a 7 4 800] ------- [0:0 13:0 30 13] [5] 2 0
r 15.324507331 _13_ RTR  --- 16 cbr 532 [13a d 7 800] ------- [0:0 13:0 30 13] [5] 3 0
r 15.324507331 _13_ AGT  --- 16 cbr 512 [13a d 7 800] ------- [0:0 13:0 30 13] [5] 3 0
s 15.354217188 _0_ AGT  --- 17 cbr 512 [0 0 0 0] ------- [0:0 13:0 32 0] [6] 0 0
r 15.354217188 _0_ RTR  --- 17 cbr 512 [0 0 0 0] ------- [0:0 13:0 32 0] [6] 0 0
SFs 15.354217188 _0_ 17 [0 -> 13] 1(0) to 4 
s 15.354217188 _0_ RTR  --- 17 cbr 532 [0 0 0 0] ------- [0:0 13:0 32 4] [6] 0 0
r 15.359787424 _4_ RTR  --- 17 cbr 532 [13a 4 0 800] ------- [0:0 13:0 32 4] [6] 1 0
SFf 15.359787424 _4_ 17 [0 -> 13] 1 to 7
f 15.359787424 _4_ RTR  --- 17 cbr 532 [13a 4 0 800] ------- [0:0 13:0 31 7] [6] 1 0
r 15.365840424 _7_ RTR  --- 17 cbr 532 [13a 7 4 800] ------- [0:0 13:0 31 7] [6] 2 0
SFf 15.365840424 _7_ 17 [0 -> 13] 1 to 13
f 15.365840424 _7_ RTR  --- 17 cbr 532 [13a 7 4 800] ------- [0:0 13:0 30 13] [6] 2 0
r 15.371554424 _13_ RTR  --- 17 cbr 532 [13a d 7 800] ------- [0:0 13:0 30 13] [6] 3 0
r 15.371554424 _13_ AGT  --- 17 cbr 512 [13a d 7 800] ------- [0:0 13:0 30 13] [6] 3 0
s 15.418112587 _0_ AGT  --- 18 cbr 512 [0 0 0 0] ------- [0:0 13:0 32 0] [7] 0 0
r 15.418112587 _0_ RTR  --- 18 cbr 512 [0 0 0 0] ------- [0:0 13:0 32 0] [7] 0 0
SFs 15.418112587 _0_ 18 [0 -> 13] 1(0) to 4 
s 15.418112587 _0_ RTR  --- 18 cbr 532 [0 0 0 0] ------- [0:0 13:0 32 4] [7] 0 0
r 15.423822824 _4_ RTR  --- 18 cbr 532 [13a 4 0 800] ------- [0:0 13:0 32 4] [7] 1 0
SFf 15.423822824 _4_ 18 [0 -> 13] 1 to 7
f 15.423822824 _4_ RTR  --- 18 cbr 532 [13a 4 0 800] ------- [0:0 13:0 31 7] [7] 1 0
r 15.429535824 _7_ RTR  --- 18 cbr 532 [13a 7 4 800] ------- [0:0 13:0 31 7] [7] 2 0
SFf 15.429535824 _7_ 18 [0 -> 13] 1 to 13
f 15.429535824 _7_ RTR  --- 18 cbr 532 [13a 7 4 800] ------- [0:0 13:0 30 13] [7] 2 0
r 15.435769824 _13_ RTR  --- 18 cbr 532 [13a d 7 800] ------- [0:0 13:0 30 13] [7] 3 0
r 15.435769824 _13_ AGT  --- 18 cbr 512 [13a d 7 800] ------- [0:0 13:0 30 13] [7] 3 0
s 15.470172920 _0_ AGT  --- 19 cbr 512 [0 0 0 0] ------- [0:0 13:0 32 0] [8] 0 0
r 15.470172920 _0_ RTR  --- 19 cbr 512 [0 0 0 0] ------- [0:0 13:0 32 0] [8] 0 0
SFs 15.470172920 _0_ 19 [0 -> 13] 1(0) to 4 
s 15.470172920 _0_ RTR  --- 19 cbr 532 [0 0 0 0] ------- [0:0 13:0 32 4] [8] 0 0
r 15.475623156 _4_ RTR  --- 19 cbr 532 [13a 4 0 800] ------- [0:0 13:0 32 4] [8] 1 0
SFf 15.475623156 _4_ 19 [0 -> 13] 1 to 7
f 15.475623156 _4_ RTR  --- 19 cbr 532 [13a 4 0 800] ------- [0:0 13:0 31 7] [8] 1 0
r 15.481336156 _7_ RTR  --- 19 cbr 532 [13a 7 4 800] ------- [0:0 13:0 31 7] [8] 2 0
SFf 15.481336156 _7_ 19 [0 -> 13] 1 to 13
f 15.481336156 _7_ RTR  --- 19 cbr 532 [13a 7 4 800] ------- [0:0 13:0 30 13] [8] 2 0
r 15.487350156 _13_ RTR  --- 19 cbr 532 [13a d 7 800] ------- [0:0 13:0 30 13] [8] 3 0
r 15.487350156 _13_ AGT  --- 19 cbr 512 [13a d 7 800] ------- [0:0 13:0 30 13] [8] 3 0
s 15.519450887 _0_ AGT  --- 20 cbr 512 [0 0 0 0] ------- [0:0 13:0 32 0] [9] 0 0
r 15.519450887 _0_ RTR  --- 20 cbr 512 [0 0 0 0] ------- [0:0 13:0 32 0] [9] 0 0
SFs 15.519450887 _0_ 20 [0 -> 13] 1(0) to 4 
s 15.519450887 _0_ RTR  --- 20 cbr 532 [0 0 0 0] ------- [0:0 13:0 32 4] [9] 0 0
r 15.525241123 _4_ RTR  --- 20 cbr 532 [13a 4 0 800] ------- [0:0 13:0 32 4] [9] 1 0
SFf 15.525241123 _4_ 20 [0 -> 13] 1 to 7
f 15.525241123 _4_ RTR  --- 20 cbr 532 [13a 4 0 800] ------- [0:0 13:0 31 7] [9] 1 0
r 15.531454123 _7_ RTR  --- 20 cbr 532 [13a 7 4 800] ------- [0:0 13:0 31 7] [9] 2 0
SFf 15.531454123 _7_ 20 [0 -> 13] 1 to 13
f 15.531454123 _7_ RTR  --- 20 cbr 532 [13a 7 4 800] ------- [0:0 13:0 30 13] [9] 2 0
r 15.537728123 _13_ RTR  --- 20 cbr 532 [13a d 7 800] ------- [0:0 13:0 30 13] [9] 3 0
r 15.537728123 _13_ AGT  --- 20 cbr 512 [13a d 7 800] ------- [0:0 13:0 30 13] [9] 3 0
s 15.592365135 _0_ AGT  --- 21 cbr 512 [0 0 0 0] ------- [0:0 13:0 32 0] [10] 0 0
r 15.592365135 _0_ RTR  --- 21 cbr 512 [0 0 0 0] ------- [0:0 13:0 32 0] [10] 0 0
SFs 15.592365135 _0_ 21 [0 -> 13] 1(0) to 4 
s 15.592365135 _0_ RTR  --- 21 cbr 532 [0 0 0 0] ------- [0:0 13:0 32 4] [10] 0 0
r 15.598135371 _4_ RTR  --- 21 cbr 532 [13a 4 0 800] ------- [0:0 13:0 32 4] [10] 1 0
SFf 15.598135371 _4_ 21 [0 -> 13] 1 to 7
f 15.598135371 _4_ RTR  --- 21 cbr 532 [13a 4 0 800] ------- [0:0 13:0 31 7] [10] 1 0
r 15.604268371 _7_ RTR  --- 21 cbr 532 [13a 7 4 800] ------- [0:0 13:0 31 7] [10] 2 0
SFf 15.604268371 _7_ 21 [0 -> 13] 1 to 13
f 15.604268371 _7_ RTR  --- 21 cbr 532 [13a 7 4 800] ------- [0:0 13:0 30 13] [10] 2 0
r 15.610222371 _13_ RTR  --- 21 cbr 532 [13a d 7 800] ------- [0:0 13:0 30 13] [10] 3 0
r 15.610222371 _13_ AGT  --- 21 cbr 512 [13a d 7 800] ------- [0:0 13:0 30 13] [10] 3 0
s 15.632052261 _0_ AGT  --- 22 cbr 512 [0 0 0 0] ------- [0:0 13:0 32 0] [11] 0 0
r 15.632052261 _0_ RTR  --- 22 cbr 512 [0 0 0 0] ------- [0:0 13:0 32 0] [11] 0 0
SFs 15.632052261 _0_ 22 [0 -> 13] 1(0) to 4 
s 15.632052261 _0_ RTR  --- 22 cbr 532 [0 0 0 0] ------- [0:0 13:0 32 4] [11] 0 0
r 15.637622497 _4_ RTR  --- 22 cbr 532 [13a 4 0 800] ------- [0:0 13:0 32 4] [11] 1 0
SFf 15.637622497 _4_ 22 [0 -> 13] 1 to 7
f 15.637622497 _4_ RTR  --- 22 cbr 532 [13a 4 0 800] ------- [0:0 13:0 31 7] [11] 1 0
r 15.643415497 _7_ RTR  --- 22 cbr 532 [13a 7 4 800] ------- [0:0 13:0 31 7] [11] 2 0
SFf 15.643415497 _7_ 22 [0 -> 13] 1 to 13
f 15.643415497 _7_ RTR  --- 22 cbr 532 [13a 7 4 800] ------- [0:0 13:0 30 13] [11] 2 0
r 15.649369497 _13_ RTR  --- 22 cbr 532 [13a d 7 800] ------- [0:0 13:0 30 13] [11] 3 0
r 15.649369497 _13_ AGT  --- 22 cbr 512 [13a d 7 800] ------- [0:0 13:0 30 13] [11] 3 0
s 15.703213758 _0_ AGT  --- 23 cbr 512 [0 0 0 0] ------- [0:0 13:0 32 0] [12] 0 0
r 15.703213758 _0_ RTR  --- 23 cbr 512 [0 0 0 0] ------- [0:0 13:0 32 0] [12] 0 0
SFs 15.703213758 _0_ 23 [0 -> 13] 1(0) to 4 
s 15.703213758 _0_ RTR  --- 23 cbr 532 [0 0 0 0] ------- [0:0 13:0 32 4] [12] 0 0
r 15.709083994 _4_ RTR  --- 23 cbr 532 [13a 4 0 800] ------- [0:0 13:0 32 4] [12] 1 0
SFf 15.709083994 _4_ 23 [0 -> 13] 1 to 7
f 15.709083994 _4_ RTR  --- 23 cbr 532 [13a 4 0 800] ------- [0:0 13:0 31 7] [12] 1 0
r 15.714816994 _7_ RTR  --- 23 cbr 532 [13a 7 4 800] ------- [0:0 13:0 31 7] [12] 2 0
SFf 15.714816994 _7_ 23 [0 -> 13] 1 to 13
f 15.714816994 _7_ RTR  --- 23 cbr 532 [13a 7 4 800] ------- [0:0 13:0 30 13] [12] 2 0
r 15.721130994 _13_ RTR  --- 23 cbr 532 [13a d 7 800] ------- [0:0 13:0 30 13] [12] 3 0
r 15.721130994 _13_ AGT  --- 23 cbr 512 [13a d 7 800] ------- [0:0 13:0 30 13] [12] 3 0
s 15.770003140 _0_ AGT  --- 24 cbr 512 [0 0 0 0] ------- [0:0 13:0 32 0] [13] 0 0
r 15.770003140 _0_ RTR  --- 24 cbr 512 [0 0 0 0] ------- [0:0 13:0 32 0] [13] 0 0
SFs 15.770003140 _0_ 24 [0 -> 13] 1(0) to 4 
s 15.770003140 _0_ RTR  --- 24 cbr 532 [0 0 0 0] ------- [0:0 13:0 32 4] [13] 0 0
r 15.775613376 _4_ RTR  --- 24 cbr 532 [13a 4 0 800] ------- [0:0 13:0 32 4] [13] 1 0
SFf 15.775613376 _4_ 24 [0 -> 13] 1 to 7
f 15.775613376 _4_ RTR  --- 24 cbr 532 [13a 4 0 800] ------- [0:0 13:0 31 7] [13] 1 0
r 15.781486376 _7_ RTR  --- 24 cbr 532 [13a 7 4 800] ------- [0:0 13:0 31 7] [13] 2 0
SFf 15.781486376 _7_ 24 [0 -> 13] 1 to 13
f 15.781486376 _7_ RTR  --- 24 cbr 532 [13a 7 4 800] ------- [0:0 13:0 30 13] [13] 2 0
r 15.787560376 _13_ RTR  --- 24 cbr 532 [13a d 7 800] ------- [0:0 13:0 30 13] [13] 3 0