n -t * -s 0  -x 100 -y 100 -Z 0 -z 30  -v circle -c black
n -t * -s 1  -x 300 -y 100 -Z 0 -z 30  -v circle -c black
n -t * -s 2  -x 500 -y 100 -Z 0 -z 30  -v circle -c black
n -t * -s 3  -x 100 -y 200 -Z 0 -z 30  -v circle -c black
n -t * -s 4  -x 300 -y 200 -Z 0 -z 30  -v circle -c black
n -t * -s 5  -x 500 -y 200 -Z 0 -z 30  -v circle -c black
n -t * -s 6  -x 100 -y 300 -Z 0 -z 30  -v circle -c black
n -t * -s 7  -x 300 -y 300 -Z 0 -z 30  -v circle -c black
n -t * -s 8  -x 500 -y 300 -Z 0 -z 30  -v circle -c black
n -t * -s 9  -x 100 -y 400 -Z 0 -z 30  -v circle -c black
n -t * -s 10  -x 300 -y 400 -Z 0 -z 30  -v circle -c black
n -t * -s 11  -x 500 -y 400 -Z 0 -z 30  -v circle -c black
n -t * -s 12  -x 100 -y 500 -Z 0 -z 30  -v circle -c black
n -t * -s 13  -x 300 -y 500 -Z 0 -z 30  -v circle -c black
n -t * -s 14  -x 500 -y 500 -Z 0 -z 30  -v circle -c black
n -t * -s 15  -x 500 -y 0 -Z 0 -z 30  -v circle -c black
V -t * -v 1.0a5 -a 0
W -t * -x 500 -y 500
A -t * -n 1 -p 0 -o 0xffffffff -c 31 -a 1
A -t * -h 1 -m 2147483647 -s 0
+ -t 15.000000000 -s 0 -d -1 -p cbr -e 512 -c 2 -a 0 -i 0 -k AGT 
- -t 15.000000000 -s 0 -d -1 -p cbr -e 512 -c 2 -a 0 -i 0 -k AGT
h -t 15.000000000 -s 0 -d -1 -p cbr -e 512 -c 2 -a 0 -i 0 -k AGT
+ -t 15.005455305 -s 0 -d -1 -p DSR -e 32 -c 2 -a 0 -i 1 -k RTR 
- -t 15.005455305 -s 0 -d -1 -p DSR -e 32 -c 2 -a 0 -i 1 -k RTR
h -t 15.005455305 -s 0 -d -1 -p DSR -e 32 -c 2 -a 0 -i 1 -k RTR
+ -t 15.046528272 -s 0 -d -1 -p cbr -e 512 -c 2 -a 0 -i 3 -k AGT 
- -t 15.046528272 -s 0 -d -1 -p cbr -e 512 -c 2 -a 0 -i 3 -k AGT
h -t 15.046528272 -s 0 -d -1 -p cbr -e 512 -c 2 -a 0 -i 3 -k AGT
+ -t 15.055719706 -s 0 -d -1 -p DSR -e 32 -c 2 -a 0 -i 4 -k RTR 
- -t 15.055719706 -s 0 -d -1 -p DSR -e 32 -c 2 -a 0 -i 4 -k RTR
h -t 15.055719706 -s 0 -d -1 -p DSR -e 32 -c 2 -a 0 -i 4 -k RTR
+ -t 15.060442494 -s 4 -d -1 -p DSR -e 48 -c 2 -a 0 -i 4 -k RTR 
- -t 15.060442494 -s 4 -d -1 -p DSR -e 48 -c 2 -a 0 -i 4 -k RTR
h -t 15.060442494 -s 4 -d -1 -p DSR -e 48 -c 2 -a 0 -i 4 -k RTR
+ -t 15.061683492 -s 6 -d -1 -p DSR -e 48 -c 2 -a 0 -i 4 -k RTR 
- -t 15.061683492 -s 6 -d -1 -p DSR -e 48 -c 2 -a 0 -i 4 -k RTR
h -t 15.061683492 -s 6 -d -1 -p DSR -e 48 -c 2 -a 0 -i 4 -k RTR
+ -t 15.063281376 -s 7 -d -1 -p DSR -e 68 -c 2 -a 0 -i 4 -k RTR 
- -t 15.063281376 -s 7 -d -1 -p DSR -e 68 -c 2 -a 0 -i 4 -k RTR
h -t 15.063281376 -s 7 -d -1 -p DSR -e 68 -c 2 -a 0 -i 4 -k RTR
+ -t 15.063790048 -s 10 -d -1 -p DSR -e 68 -c 2 -a 0 -i 4 -k RTR 
- -t 15.063790048 -s 10 -d -1 -p DSR -e 68 -c 2 -a 0 -i 4 -k RTR
h -t 15.063790048 -s 10 -d -1 -p DSR -e 68 -c 2 -a 0 -i 4 -k RTR
+ -t 15.064752477 -s 3 -d -1 -p DSR -e 48 -c 2 -a 0 -i 4 -k RTR 
- -t 15.064752477 -s 3 -d -1 -p DSR -e 48 -c 2 -a 0 -i 4 -k RTR
h -t 15.064752477 -s 3 -d -1 -p DSR -e 48 -c 2 -a 0 -i 4 -k RTR
+ -t 15.065901741 -s 2 -d -1 -p DSR -e 68 -c 2 -a 0 -i 4 -k RTR 
- -t 15.065901741 -s 2 -d -1 -p DSR -e 68 -c 2 -a 0 -i 4 -k RTR
h -t 15.065901741 -s 2 -d -1 -p DSR -e 68 -c 2 -a 0 -i 4 -k RTR
+ -t 15.066046082 -s 13 -d 7 -p DSR -e 60 -c 2 -a 0 -i 7 -k RTR 
- -t 15.066046082 -s 13 -d 7 -p DSR -e 60 -c 2 -a 0 -i 7 -k RTR
h -t 15.066046082 -s 13 -d 7 -p DSR -e 60 -c 2 -a 0 -i 7 -k RTR
+ -t 15.066183692 -s 1 -d -1 -p DSR -e 48 -c 2 -a 0 -i 4 -k RTR 
- -t 15.066183692 -s 1 -d -1 -p DSR -e 48 -c 2 -a 0 -i 4 -k RTR
h -t 15.066183692 -s 1 -d -1 -p DSR -e 48 -c 2 -a 0 -i 4 -k RTR
+ -t 15.067090636 -s 9 -d -1 -p DSR -e 68 -c 2 -a 0 -i 4 -k RTR 
- -t 15.067090636 -s 9 -d -1 -p DSR -e 68 -c 2 -a 0 -i 4 -k RTR
h -t 15.067090636 -s 9 -d -1 -p DSR -e 68 -c 2 -a 0 -i 4 -k RTR
+ -t 15.067765093 -s 8 -d -1 -p DSR -e 68 -c 2 -a 0 -i 4 -k RTR 
- -t 15.067765093 -s 8 -d -1 -p DSR -e 68 -c 2 -a 0 -i 4 -k RTR
h -t 15.067765093 -s 8 -d -1 -p DSR -e 68 -c 2 -a 0 -i 4 -k RTR
+ -t 15.068841490 -s 5 -d -1 -p DSR -e 68 -c 2 -a 0 -i 4 -k RTR 
- -t 15.068841490 -s 5 -d -1 -p DSR -e 68 -c 2 -a 0 -i 4 -k RTR
h -t 15.068841490 -s 5 -d -1 -p DSR -e 68 -c 2 -a 0 -i 4 -k RTR
+ -t 15.069136389 -s 12 -d -1 -p DSR -e 68 -c 2 -a 0 -i 4 -k RTR 
- -t 15.069136389 -s 12 -d -1 -p DSR -e 68 -c 2 -a 0 -i 4 -k RTR
h -t 15.069136389 -s 12 -d -1 -p DSR -e 68 -c 2 -a 0 -i 4 -k RTR
+ -t 15.069739443 -s 15 -d -1 -p DSR -e 68 -c 2 -a 0 -i 4 -k RTR 
- -t 15.069739443 -s 15 -d -1 -p DSR -e 68 -c 2 -a 0 -i 4 -k RTR
h -t 15.069739443 -s 15 -d -1 -p DSR -e 68 -c 2 -a 0 -i 4 -k RTR
+ -t 15.072580104 -s 7 -d 4 -p DSR -e 60 -c 2 -a 0 -i 7 -k RTR 
- -t 15.072580104 -s 7 -d 4 -p DSR -e 60 -c 2 -a 0 -i 7 -k RTR
h -t 15.072580104 -s 7 -d 4 -p DSR -e 60 -c 2 -a 0 -i 7 -k RTR
+ -t 15.073350923 -s 11 -d -1 -p DSR -e 92 -c 2 -a 0 -i 4 -k RTR 
- -t 15.073350923 -s 11 -d -1 -p DSR -e 92 -c 2 -a 0 -i 4 -k RTR
h -t 15.073350923 -s 11 -d -1 -p DSR -e 92 -c 2 -a 0 -i 4 -k RTR
+ -t 15.074637104 -s 4 -d 0 -p DSR -e 60 -c 2 -a 0 -i 7 -k RTR 
- -t 15.074637104 -s 4 -d 0 -p DSR -e 60 -c 2 -a 0 -i 7 -k RTR
h -t 15.074637104 -s 4 -d 0 -p DSR -e 60 -c 2 -a 0 -i 7 -k RTR
+ -t 15.075602392 -s 13 -d 10 -p DSR -e 60 -c 2 -a 0 -i 8 -k RTR 
- -t 15.075602392 -s 13 -d 10 -p DSR -e 60 -c 2 -a 0 -i 8 -k RTR
h -t 15.075602392 -s 13 -d 10 -p DSR -e 60 -c 2 -a 0 -i 8 -k RTR
+ -t 15.078509066 -s 14 -d -1 -p DSR -e 92 -c 2 -a 0 -i 4 -k RTR 
- -t 15.078509066 -s 14 -d -1 -p DSR -e 92 -c 2 -a 0 -i 4 -k RTR
h -t 15.078509066 -s 14 -d -1 -p DSR -e 92 -c 2 -a 0 -i 4 -k RTR
+ -t 15.079208183 -s 10 -d 4 -p DSR -e 60 -c 2 -a 0 -i 8 -k RTR 
- -t 15.079208183 -s 10 -d 4 -p DSR -e 60 -c 2 -a 0 -i 8 -k RTR
h -t 15.079208183 -s 10 -d 4 -p DSR -e 60 -c 2 -a 0 -i 8 -k RTR
+ -t 15.081237086 -s 0 -d 4 -p cbr -e 556 -c 2 -a 0 -i 0 -k RTR 
- -t 15.081237086 -s 0 -d 4 -p cbr -e 556 -c 2 -a 0 -i 0 -k RTR
h -t 15.081237086 -s 0 -d 4 -p cbr -e 556 -c 2 -a 0 -i 0 -k RTR
+ -t 15.085890085 -s 13 -d 14 -p DSR -e 68 -c 2 -a 0 -i 10 -k RTR 
- -t 15.085890085 -s 13 -d 14 -p DSR -e 68 -c 2 -a 0 -i 10 -k RTR
h -t 15.085890085 -s 13 -d 14 -p DSR -e 68 -c 2 -a 0 -i 10 -k RTR
+ -t 15.086213333 -s 13 -d 11 -p DSR -e 68 -c 2 -a 0 -i 9 -k RTR 
- -t 15.086213333 -s 13 -d 11 -p DSR -e 68 -c 2 -a 0 -i 9 -k RTR
h -t 15.086213333 -s 13 -d 11 -p DSR -e 68 -c 2 -a 0 -i 9 -k RTR
+ -t 15.089003322 -s 4 -d 7 -p cbr -e 556 -c 2 -a 0 -i 0 -k RTR 
- -t 15.089003322 -s 4 -d 7 -p cbr -e 556 -c 2 -a 0 -i 0 -k RTR
h -t 15.089003322 -s 4 -d 7 -p cbr -e 556 -c 2 -a 0 -i 0 -k RTR
+ -t 15.091111778 -s 4 -d 0 -p DSR -e 60 -c 2 -a 0 -i 8 -k RTR 
- -t 15.091111778 -s 4 -d 0 -p DSR -e 60 -c 2 -a 0 -i 8 -k RTR
h -t 15.091111778 -s 4 -d 0 -p DSR -e 60 -c 2 -a 0 -i 8 -k RTR
+ -t 15.097096778 -s 7 -d 13 -p cbr -e 556 -c 2 -a 0 -i 0 -k RTR 
- -t 15.097096778 -s 7 -d 13 -p cbr -e 556 -c 2 -a 0 -i 0 -k RTR
h -t 15.097096778 -s 7 -d 13 -p cbr -e 556 -c 2 -a 0 -i 0 -k RTR
+ -t 15.101741575 -s 0 -d -1 -p cbr -e 512 -c 2 -a 0 -i 11 -k AGT 
- -t 15.101741575 -s 0 -d -1 -p cbr -e 512 -c 2 -a 0 -i 11 -k AGT
h -t 15.101741575 -s 0 -d -1 -p cbr -e 512 -c 2 -a 0 -i 11 -k AGT
+ -t 15.101741575 -s 0 -d 4 -p cbr -e 556 -c 2 -a 0 -i 11 -k RTR 
- -t 15.101741575 -s 0 -d 4 -p cbr -e 556 -c 2 -a 0 -i 11 -k RTR
h -t 15.101741575 -s 0 -d 4 -p cbr -e 556 -c 2 -a 0 -i 11 -k RTR
r -t 15.105426291 -s 13 -d 13 -p cbr -e 512 -c 2 -a 0 -i 0 -k AGT
+ -t 15.109850036 -s 14 -d 8 -p DSR -e 68 -c 2 -a 0 -i 10 -k RTR 
- -t 15.109850036 -s 14 -d 8 -p DSR -e 68 -c 2 -a 0 -i 10 -k RTR
h -t 15.109850036 -s 14 -d 8 -p DSR -e 68 -c 2 -a 0 -i 10 -k RTR
+ -t 15.111237086 -s 0 -d 4 -p cbr -e 556 -c 2 -a 0 -i 3 -k RTR 
- -t 15.111237086 -s 0 -d 4 -p cbr -e 556 -c 2 -a 0 -i 3 -k RTR
h -t 15.111237086 -s 0 -d 4 -p cbr -e 556 -c 2 -a 0 -i 3 -k RTR
+ -t 15.112992036 -s 8 -d 4 -p DSR -e 68 -c 2 -a 0 -i 10 -k RTR 
- -t 15.112992036 -s 8 -d 4 -p DSR -e 68 -c 2 -a 0 -i 10 -k RTR
h -t 15.112992036 -s 8 -d 4 -p DSR -e 68 -c 2 -a 0 -i 10 -k RTR
+ -t 15.114109145 -s 13 -d 12 -p DSR -e 60 -c 2 -a 0 -i 13 -k RTR 
- -t 15.114109145 -s 13 -d 12 -p DSR -e 60 -c 2 -a 0 -i 13 -k RTR
h -t 15.114109145 -s 13 -d 12 -p DSR -e 60 -c 2 -a 0 -i 13 -k RTR
+ -t 15.115070141 -s 13 -d 9 -p DSR -e 60 -c 2 -a 0 -i 12 -k RTR 
- -t 15.115070141 -s 13 -d 9 -p DSR -e 60 -c 2 -a 0 -i 12 -k RTR
h -t 15.115070141 -s 13 -d 9 -p DSR -e 60 -c 2 -a 0 -i 12 -k RTR
+ -t 15.115161920 -s 4 -d 0 -p DSR -e 68 -c 2 -a 0 -i 10 -k RTR 
- -t 15.115161920 -s 4 -d 0 -p DSR -e 68 -c 2 -a 0 -i 10 -k RTR
h -t 15.115161920 -s 4 -d 0 -p DSR -e 68 -c 2 -a 0 -i 10 -k RTR
+ -t 15.121358902 -s 4 -d 7 -p cbr -e 556 -c 2 -a 0 -i 11 -k RTR 
- -t 15.121358902 -s 4 -d 7 -p cbr -e 556 -c 2 -a 0 -i 11 -k RTR
h -t 15.121358902 -s 4 -d 7 -p cbr -e 556 -c 2 -a 0 -i 11 -k RTR
+ -t 15.129527374 -s 4 -d 7 -p cbr -e 556 -c 2 -a 0 -i 3 -k RTR 
- -t 15.129527374 -s 4 -d 7 -p cbr -e 556 -c 2 -a 0 -i 3 -k RTR
h -t 15.129527374 -s 4 -d 7 -p cbr -e 556 -c 2 -a 0 -i 3 -k RTR
+ -t 15.135552374 -s 7 -d 13 -p cbr -e 556 -c 2 -a 0 -i 11 -k RTR 
- -t 15.135552374 -s 7 -d 13 -p cbr -e 556 -c 2 -a 0 -i 11 -k RTR
h -t 15.135552374 -s 7 -d 13 -p cbr -e 556 -c 2 -a 0 -i 11 -k RTR
r -t 15.141658374 -s 13 -d 13 -p cbr -e 512 -c 2 -a 0 -i 11 -k AGT
+ -t 15.143740610 -s 11 -d 7 -p DSR -e 68 -c 2 -a 0 -i 9 -k RTR 
- -t 15.143740610 -s 11 -d 7 -p DSR -e 68 -c 2 -a 0 -i 9 -k RTR
h -t 15.143740610 -s 11 -d 7 -p DSR -e 68 -c 2 -a 0 -i 9 -k RTR
+ -t 15.150070553 -s 7 -d 13 -p cbr -e 556 -c 2 -a 0 -i 3 -k RTR 
- -t 15.150070553 -s 7 -d 13 -p cbr -e 556 -c 2 -a 0 -i 3 -k RTR
h -t 15.150070553 -s 7 -d 13 -p cbr -e 556 -c 2 -a 0 -i 3 -k RTR
+ -t 15.152223398 -s 7 -d 4 -p DSR -e 68 -c 2 -a 0 -i 9 -k RTR 
- -t 15.152223398 -s 7 -d 4 -p DSR -e 68 -c 2 -a 0 -i 9 -k RTR
h -t 15.152223398 -s 7 -d 4 -p DSR -e 68 -c 2 -a 0 -i 9 -k RTR
+ -t 15.154202301 -s 9 -d 6 -p DSR -e 60 -c 2 -a 0 -i 12 -k RTR 
- -t 15.154202301 -s 9 -d 6 -p DSR -e 60 -c 2 -a 0 -i 12 -k RTR
h -t 15.154202301 -s 9 -d 6 -p DSR -e 60 -c 2 -a 0 -i 12 -k RTR
r -t 15.160229046 -s 13 -d 13 -p cbr -e 512 -c 2 -a 0 -i 3 -k AGT
+ -t 15.162186792 -s 6 -d 0 -p DSR -e 60 -c 2 -a 0 -i 12 -k RTR 
- -t 15.162186792 -s 6 -d 0 -p DSR -e 60 -c 2 -a 0 -i 12 -k RTR
h -t 15.162186792 -s 6 -d 0 -p DSR -e 60 -c 2 -a 0 -i 12 -k RTR
+ -t 15.164368458 -s 4 -d 0 -p DSR -e 68 -c 2 -a 0 -i 9 -k RTR 
- -t 15.164368458 -s 4 -d 0 -p DSR -e 68 -c 2 -a 0 -i 9 -k RTR
h -t 15.164368458 -s 4 -d 0 -p DSR -e 68 -c 2 -a 0 -i 9 -k RTR
+ -t 15.171052852 -s 12 -d 6 -p DSR -e 60 -c 2 -a 0 -i 13 -k RTR 
- -t 15.171052852 -s 12 -d 6 -p DSR -e 60 -c 2 -a 0 -i 13 -k RTR
h -t 15.171052852 -s 12 -d 6 -p DSR -e 60 -c 2 -a 0 -i 13 -k RTR
+ -t 15.172561880 -s 0 -d -1 -p cbr -e 512 -c 2 -a 0 -i 14 -k AGT 
- -t 15.172561880 -s 0 -d -1 -p cbr -e 512 -c 2 -a 0 -i 14 -k AGT
h -t 15.172561880 -s 0 -d -1 -p cbr -e 512 -c 2 -a 0 -i 14 -k AGT
+ -t 15.172561880 -s 0 -d 4 -p cbr -e 532 -c 2 -a 0 -i 14 -k RTR 
- -t 15.172561880 -s 0 -d 4 -p cbr -e 532 -c 2 -a 0 -i 14 -k RTR
h -t 15.172561880 -s 0 -d 4 -p cbr -e 532 -c 2 -a 0 -i 14 -k RTR
+ -t 15.173310852 -s 6 -d 0 -p DSR -e 60 -c 2 -a 0 -i 13 -k RTR 
- -t 15.173310852 -s 6 -d 0 -p DSR -e 60 -c 2 -a 0 -i 13 -k RTR
h -t 15.173310852 -s 6 -d 0 -p DSR -e 60 -c 2 -a 0 -i 13 -k RTR
+ -t 15.179235754 -s 4 -d 7 -p cbr -e 532 -c 2 -a 0 -i 14 -k RTR 
- -t 15.179235754 -s 4 -d 7 -p cbr -e 532 -c 2 -a 0 -i 14 -k RTR
h -t 15.179235754 -s 4 -d 7 -p cbr -e 532 -c 2 -a 0 -i 14 -k RTR
+ -t 15.187408245 -s 7 -d 13 -p cbr -e 532 -c 2 -a 0 -i 14 -k RTR 
- -t 15.187408245 -s 7 -d 13 -p cbr -e 532 -c 2 -a 0 -i 14 -k RTR
h -t 15.187408245 -s 7 -d 13 -p cbr -e 532 -c 2 -a 0 -i 14 -k RTR
r -t 15.193522245 -s 13 -d 13 -p cbr -e 512 -c 2 -a 0 -i 14 -k AGT
+ -t 15.239429809 -s 0 -d -1 -p cbr -e 512 -c 2 -a 0 -i 15 -k AGT 
- -t 15.239429809 -s 0 -d -1 -p cbr -e 512 -c 2 -a 0 -i 15 -k AGT
h -t 15.239429809 -s 0 -d -1 -p cbr -e 512 -c 2 -a 0 -i 15 -k AGT
+ -t 15.239429809 -s 0 -d 4 -p cbr -e 532 -c 2 -a 0 -i 15 -k RTR 
- -t 15.239429809 -s 0 -d 4 -p cbr -e 532 -c 2 -a 0 -i 15 -k RTR
h -t 15.239429809 -s 0 -d 4 -p cbr -e 532 -c 2 -a 0 -i 15 -k RTR
+ -t 15.245340045 -s 4 -d 7 -p cbr -e 532 -c 2 -a 0 -i 15 -k RTR 
- -t 15.245340045 -s 4 -d 7 -p cbr -e 532 -c 2 -a 0 -i 15 -k RTR
h -t 15.245340045 -s 4 -d 7 -p cbr -e 532 -c 2 -a 0 -i 15 -k RTR
+ -t 15.251253045 -s 7 -d 13 -p cbr -e 532 -c 2 -a 0 -i 15 -k RTR 
- -t 15.251253045 -s 7 -d 13 -p cbr -e 532 -c 2 -a 0 -i 15 -k RTR
h -t 15.251253045 -s 7 -d 13 -p cbr -e 532 -c 2 -a 0 -i 15 -k RTR
r -t 15.257047045 -s 13 -d 13 -p cbr -e 512 -c 2 -a 0 -i 15 -k AGT
+ -t 15.306810095 -s 0 -d -1 -p cbr -e 512 -c 2 -a 0 -i 16 -k AGT 
- -t 15.306810095 -s 0 -d -1 -p cbr -e 512 -c 2 -a 0 -i 16 -k AGT
h -t 15.306810095 -s 0 -d -1 -p cbr -e 512 -c 2 -a 0 -i 16 -k AGT
+ -t 15.306810095 -s 0 -d 4 -p cbr -e 532 -c 2 -a 0 -i 16 -k RTR 
- -t 15.306810095 -s 0 -d 4 -p cbr -e 532 -c 2 -a 0 -i 16 -k RTR
h -t 15.306810095 -s 0 -d 4 -p cbr -e 532 -c 2 -a 0 -i 16 -k RTR
+ -t 15.312640331 -s 4 -d 7 -p cbr -e 532 -c 2 -a 0 -i 16 -k RTR 
- -t 15.312640331 -s 4 -d 7 -p cbr -e 532 -c 2 -a 0 -i 16 -k RTR
h -t 15.312640331 -s 4 -d 7 -p cbr -e 532 -c 2 -a 0 -i 16 -k RTR
+ -t 15.318533331 -s 7 -d 13 -p cbr -e 532 -c 2 -a 0 -i 16 -k RTR 
- -t 15.318533331 -s 7 -d 13 -p cbr -e 532 -c 2 -a 0 -i 16 -k RTR
h -t 15.318533331 -s 7 -d 13 -p cbr -e 532 -c 2 -a 0 -i 16 -k RTR
r -t 15.324507331 -s 13 -d 13 -p cbr -e 512 -c 2 -a 0 -i 16 -k AGT
+ -t 15.354217188 -s 0 -d -1 -p cbr -e 512 -c 2 -a 0 -i 17 -k AGT 
- -t 15.354217188 -s 0 -d -1 -p cbr -e 512 -c 2 -a 0 -i 17 -k AGT
h -t 15.354217188 -s 0 -d -1 -p cbr -e 512 -c 2 -a 0 -i 17 -k AGT
+ -t 15.354217188 -s 0 -d 4 -p cbr -e 532 -c 2 -a 0 -i 17 -k RTR 
- -t 15.354217188 -s 0 -d 4 -p cbr -e 532 -c 2 -a 0 -i 17 -k RTR
h -t 15.354217188 -s 0 -d 4 -p cbr -e 532 -c 2 -a 0 -i 17 -k RTR
+ -t 15.359787424 -s 4 -d 7 -p cbr -e 532 -c 2 -a 0 -i 17 -k RTR 
- -t 15.359787424 -s 4 -d 7 -p cbr -e 532 -c 2 -a 0 -i 17 -k RTR
h -t 15.359787424 -s 4 -d 7 -p cbr -e 532 -c 2 -a 0 -i 17 -k RTR
+ -t 15.365840424 -s 7 -d 13 -p cbr -e 532 -c 2 -a 0 -i 17 -k RTR 
- -t 15.365840424 -s 7 -d 13 -p cbr -e 532 -c 2 -a 0 -i 17 -k RTR
h -t 15.365840424 -s 7 -d 13 -p cbr -e 532 -c 2 -a 0 -i 17 -k RTR
r -t 15.371554424 -s 13 -d 13 -p cbr -e 512 -c 2 -a 0 -i 17 -k AGT
+ -t 15.418112587 -s 0 -d -1 -p cbr -e 512 -c 2 -a 0 -i 18 -k AGT 
- -t 15.418112587 -s 0 -d -1 -p cbr -e 512 -c 2 -a 0 -i 18 -k AGT
h -t 15.418112587 -s 0 -d -1 -p cbr -e 512 -c 2 -a 0 -i 18 -k AGT
+ -t 15.418112587 -s 0 -d 4 -p cbr -e 532 -c 2 -a 0 -i 18 -k RTR 
- -t 15.418112587 -s 0 -d 4 -p cbr -e 532 -c 2 -a 0 -i 18 -k RTR
h -t 15.418112587 -s 0 -d 4 -p cbr -e 532 -c 2 -a 0 -i 18 -k RTR
+ -t 15.423822824 -s 4 -d 7 -p cbr -e 532 -c 2 -a 0 -i 18 -k RTR 
- -t 15.423822824 -s 4 -d 7 -p cbr -e 532 -c 2 -a 0 -i 18 -k RTR
h -t 15.423822824 -s 4 -d 7 -p cbr -e 532 -c 2 -a 0 -i 18 -k RTR
+ -t 15.429535824 -s 7 -d 13 -p cbr -e 532 -c 2 -a 0 -i 18 -k RTR 
- -t 15.429535824 -s 7 -d 13 -p cbr -e 532 -c 2 -a 0 -i 18 -k RTR
h -t 15.429535824 -s 7 -d 13 -p cbr -e 532 -c 2 -a 0 -i 18 -k RTR
r -t 15.435769824 -s 13 -d 13 -p cbr -e 512 -c 2 -a 0 -i 18 -k AGT
+ -t 15.470172920 -s 0 -d -1 -p cbr -e 512 -c 2 -a 0 -i 19 -k AGT 
- -t 15.470172920 -s 0 -d -1 -p cbr -e 512 -c 2 -a 0 -i 19 -k AGT
h -t 15.470172920 -s 0 -d -1 -p cbr -e 512 -c 2 -a 0 -i 19 -k AGT
+ -t 15.470172920 -s 0 -d 4 -p cbr -e 532 -c 2 -a 0 -i 19 -k RTR 
- -t 15.470172920 -s 0 -d 4 -p cbr -e 532 -c 2 -a 0 -i 19 -k RTR
h -t 15.470172920 -s 0 -d 4 -p cbr -e 532 -c 2 -a 0 -i 19 -k RTR
+ -t 15.475623156 -s 4 -d 7 -p cbr -e 532 -c 2 -a 0 -i 19 -k RTR 
- -t 15.475623156 -s 4 -d 7 -p cbr -e 532 -c 2 -a 0 -i 19 -k RTR
h -t 15.475623156 -s 4 -d 7 -p cbr -e 532 -c 2 -a 0 -i 19 -k RTR
+ -t 15.481336156 -s 7 -d 13 -p cbr -e 532 -c 2 -a 0 -i 19 -k RTR 
- -t 15.481336156 -s 7 -d 13 -p cbr -e 532 -c 2 -a 0 -i 19 -k RTR
h -t 15.481336156 -s 7 -d 13 -p cbr -e 532 -c 2 -a 0 -i 19 -k RTR
r -t 15.487350156 -s 13 -d 13 -p cbr -e 512 -c 2 -a 0 -i 19 -k AGT
+ -t 15.519450887 -s 0 -d -1 -p cbr -e 512 -c 2 -a 0 -i 20 -k AGT 
- -t 15.519450887 -s 0 -d -1 -p cbr -e 512 -c 2 -a 0 -i 20 -k AGT
h -t 15.519450887 -s 0 -d -1 -p cbr -e 512 -c 2 -a 0 -i 20 -k AGT
+ -t 15.519450887 -s 0 -d 4 -p cbr -e 532 -c 2 -a 0 -i 20 -k RTR 
- -t 15.519450887 -s 0 -d 4 -p cbr -e 532 -c 2 -a 0 -i 20 -k RTR
h -t 15.519450887 -s 0 -d 4 -p cbr -e 532 -c 2 -a 0 -i 20 -k RTR
+ -t 15.525241123 -s 4 -d 7 -p cbr -e 532 -c 2 -a 0 -i 20 -k RTR 
- -t 15.525241123 -s 4 -d 7 -p cbr -e 532 -c 2 -a 0 -i 20 -k RTR
h -t 15.525241123 -s 4 -d 7 -p cbr -e 532 -c 2 -a 0 -i 20 -k RTR
+ -t 15.531454123 -s 7 -d 13 -p cbr -e 532 -c 2 -a 0 -i 20 -k RTR 
- -t 15.531454123 -s 7 -d 13 -p cbr -e 532 -c 2 -a 0 -i 20 -k RTR
h -t 15.531454123 -s 7 -d 13 -p cbr -e 532 -c 2 -a 0 -i 20 -k RTR
r -t 15.537728123 -s 13 -d 13 -p cbr -e 512 -c 2 -a 0 -i 20 -k AGT
+ -t 15.592365135 -s 0 -d -1 -p cbr -e 512 -c 2 -a 0 -i 21 -k AGT 
- -t 15.592365135 -s 0 -d -1 -p cbr -e 512 -c 2 -a 0 -i 21 -k AGT
h -t 15.592365135 -s 0 -d -1 -p cbr -e 512 -c 2 -a 0 -i 21 -k AGT
+ -t 15.592365135 -s 0 -d 4 -p cbr -e 532 -c 2 -a 0 -i 21 -k RTR 
- -t 15.592365135 -s 0 -d 4 -p cbr -e 532 -c 2 -a 0 -i 21 -k RTR
h -t 15.592365135 -s 0 -d 4 -p cbr -e 532 -c 2 -a 0 -i 21 -k RTR
+ -t 15.598135371 -s 4 -d 7 -p cbr -e 532 -c 2 -a 0 -i 21 -k RTR 
- -t 15.598135371 -s 4 -d 7 -p cbr -e 532 -c 2 -a 0 -i 21 -k RTR
h -t 15.598135371 -s 4 -d 7 -p cbr -e 532 -c 2 -a 0 -i 21 -k RTR
+ -t 15.604268371 -s 7 -d 13 -p cbr -e 532 -c 2 -a 0 -i 21 -k RTR 
- -t 15.604268371 -s 7 -d 13 -p cbr -e 532 -c 2 -a 0 -i 21 -k RTR
h -t 15.604268371 -s 7 -d 13 -p cbr -e 532 -c 2 -a 0 -i 21 -k RTR
r -t 15.610222371 -s 13 -d 13 -p cbr -e 512 -c 2 -a 0 -i 21 -k AGT
+ -t 15.632052261 -s 0 -d -1 -p cbr -e 512 -c 2 -a 0 -i 22 -k AGT 
- -t 15.632052261 -s 0 -d -1 -p cbr -e 512 -c 2 -a 0 -i 22 -k AGT
h -t 15.632052261 -s 0 -d -1 -p cbr -e 512 -c 2 -a 0 -i 22 -k AGT
+ -t 15.632052261 -s 0 -d 4 -p cbr -e 532 -c 2 -a 0 -i 22 -k RTR 
- -t 15.632052261 -s 0 -d 4 -p cbr -e 532 -c 2 -a 0 -i 22 -k RTR
h -t 15.632052261 -s 0 -d 4 -p cbr -e 532 -c 2 -a 0 -i 22 -k RTR
+ -t 15.637622497 -s 4 -d 7 -p cbr -e 532 -c 2 -a 0 -i 22 -k RTR 
- -t 15.637622497 -s 4 -d 7 -p cbr -e 532 -c 2 -a 0 -i 22 -k RTR
h -t 15.637622497 -s 4 -d 7 -p cbr -e 532 -c 2 -a 0 -i 22 -k RTR
+ -t 15.643415497 -s 7 -d 13 -p cbr -e 532 -c 2 -a 0 -i 22 -k RTR 
- -t 15.643415497 -s 7 -d 13 -p cbr -e 532 -c 2 -a 0 -i 22 -k RTR
h -t 15.643415497 -s 7 -d 13 -p cbr -e 532 -c 2 -a 0 -i 22 -k RTR
r -t 15.649369497 -s 13 -d 13 -p cbr -e 512 -c 2 -a 0 -i 22 -k AGT
+ -t 15.703213758 -s 0 -d -1 -p cbr -e 512 -c 2 -a 0 -i 23 -k AGT 
- -t 15.703213758 -s 0 -d -1 -p cbr -e 512 -c 2 -a 0 -i 23 -k AGT
h -t 15.703213758 -s 0 -d -1 -p cbr -e 512 -c 2 -a 0 -i 23 -k AGT
+ -t 15.703213758 -s 0 -d 4 -p cbr -e 532 -c 2 -a 0 -i 23 -k RTR 
- -t 15.703213758 -s 0 -d 4 -p cbr -e 532 -c 2 -a 0 -i 23 -k RTR
h -t 15.703213758 -s 0 -d 4 -p cbr -e 532 -c 2 -a 0 -i 23 -k RTR
+ -t 15.709083994 -s 4 -d 7 -p cbr -e 532 -c 2 -a 0 -i 23 -k RTR 
- -t 15.709083994 -s 4 -d 7 -p cbr -e 532 -c 2 -a 0 -i 23 -k RTR
h -t 15.709083994 -s 4 -d 7 -p cbr -e 532 -c 2 -a 0 -i 23 -k RTR
+ -t 15.714816994 -s 7 -d 13 -p cbr -e 532 -c 2 -a 0 -i 23 -k RTR 
- -t 15.714816994 -s 7 -d 13 -p cbr -e 532 -c 2 -a 0 -i 23 -k RTR
h -t 15.714816994 -s 7 -d 13 -p cbr -e 532 -c 2 -a 0 -i 23 -k RTR
r -t 15.721130994 -s 13 -d 13 -p cbr -e 512 -c 2 -a 0 -i 23 -k AGT
+ -t 15.770003140 -s 0 -d -1 -p cbr -e 512 -c 2 -a 0 -i 24 -k AGT 
- -t 15.770003140 -s 0 -d -1 -p cbr -e 512 -c 2 -a 0 -i 24 -k AGT
h -t 15.770003140 -s 0 -d -1 -p cbr -e 512 -c 2 -a 0 -i 24 -k AGT
+ -t 15.770003140 -s 0 -d 4 -p cbr -e 532 -c 2 -a 0 -i 24 -k RTR 
- -t 15.770003140 -s 0 -d 4 -p cbr -e 532 -c 2 -a 0 -i 24 -k RTR
h -t 15.770003140 -s 0 -d 4 -p cbr -e 532 -c 2 -a 0 -i 24 -k RTR
+ -t 15.775613376 -s 4 -d 7 -p cbr -e 532 -c 2 -a 0 -i 24 -k RTR 
- -t 15.775613376 -s 4 -d 7 -p cbr -e 532 -c 2 -a 0 -i 24 -k RTR
h -t 15.775613376 -s 4 -d 7 -p cbr -e 532 -c 2 -a 0 -i 24 -k RTR
+ -t 15.781486376 -s 7 -d 13 -p cbr -e 532 -c 2 -a 0 -i 24 -k RTR 
- -t 15.781486376 -s 7 -d 13 -p cbr -e 532 -c 2 -a 0 -i 24 -k RTR
h -t 15.781486376 -s 7 -d 13 -p cbr -e 532 -c 2 -a 0 -i 24 -k RTR
r -t 15.787560376 -s 13 -d 13 -p cbr -e 512 -c 2 -a 0 -i 24 -k AGT
+ -t 15.838010436 -s 0 -d -1 -p cbr -e 512 -c 2 -a 0 -i 25 -k AGT 
- -t 15.838010436 -s 0 -d -1 -p cbr -e 512 -c 2 -a 0 -i 25 -k AGT
h -t 15.838010436 -s 0 -d -1 -p cbr -e 512 -c 2 -a 0 -i 25 -k AGT
+ -t 15.838010436 -s 0 -d 4 -p cbr -e 532 -c 2 -a 0 -i 25 -k RTR 
- -t 15.838010436 -s 0 -d 4 -p cbr -e 532 -c 2 -a 0 -i 25 -k RTR
h -t 15.838010436 -s 0 -d 4 -p cbr -e 532 -c 2 -a 0 -i 25 -k RTR
+ -t 15.843460672 -s 4 -d 7 -p cbr -e 532 -c 2 -a 0 -i 25 -k RTR 
- -t 15.843460672 -s 4 -d 7 -p cbr -e 532 -c 2 -a 0 -i 25 -k RTR
h -t 15.843460672 -s 4 -d 7 -p cbr -e 532 -c 2 -a 0 -i 25 -k RTR
+ -t 15.849773672 -s 7 -d 13 -p cbr -e 532 -c 2 -a 0 -i 25 -k RTR 
- -t 15.849773672 -s 7 -d 13 -p cbr -e 532 -c 2 -a 0 -i 25 -k RTR
h -t 15.849773672 -s 7 -d 13 -p cbr -e 532 -c 2 -a 0 -i 25 -k RTR
r -t 15.855747672 -s 13 -d 13 -p cbr -e 512 -c 2 -a 0 -i 25 -k AGT
+ -t 15.889860231 -s 0 -d -1 -p cbr -e 512 -c 2 -a 0 -i 26 -k AGT 
- -t 15.889860231 -s 0 -d -1 -p cbr -e 512 -c 2 -a 0 -i 26 -k AGT
h -t 15.889860231 -s 0 -d -1 -p cbr -e 512 -c 2 -a 0 -i 26 -k AGT
+ -t 15.889860231 -s 0 -d 4 -p cbr -e 532 -c 2 -a 0 -i 26 -k RTR 
- -t 15.889860231 -s 0 -d 4 -p cbr -e 532 -c 2 -a 0 -i 26 -k RTR
h -t 15.889860231 -s 0 -d 4 -p cbr -e 532 -c 2 -a 0 -i 26 -k RTR
+ -t 15.895370467 -s 4 -d 7 -p cbr -e 532 -c 2 -a 0 -i 26 -k RTR 
- -t 15.895370467 -s 4 -d 7 -p cbr -e 532 -c 2 -a 0 -i 26 -k RTR
h -t 15.895370467 -s 4 -d 7 -p cbr -e 532 -c 2 -a 0 -i 26 -k RTR
+ -t 15.901443467 -s 7 -d 13 -p cbr -e 532 -c 2 -a 0 -i 26 -k RTR 
- -t 15.901443467 -s 7 -d 13 -p cbr -e 532 -c 2 -a 0 -i 26 -k RTR
h -t 15.901443467 -s 7 -d 13 -p cbr -e 532 -c 2 -a 0 -i 26 -k RTR
r -t 15.907197467 -s 13 -d 13 -p cbr -e 512 -c 2 -a 0 -i 26 -k AGT
+ -t 15.944575140 -s 0 -d -1 -p cbr -e 512 -c 2 -a 0 -i 27 -k AGT 
- -t 15.944575140 -s 0 -d -1 -p cbr -e 512 -c 2 -a 0 -i 27 -k AGT
h -t 15.944575140 -s 0 -d -1 -p cbr -e 512 -c 2 -a 0 -i 27 -k AGT
+ -t 15.944575140 -s 0 -d 4 -p cbr -e 532 -c 2 -a 0 -i 27 -k RTR 
- -t 15.944575140 -s 0 -d 4 -p cbr -e 532 -c 2 -a 0 -i 27 -k RTR
h -t 15.944575140 -s 0 -d 4 -p cbr -e 532 -c 2 -a 0 -i 27 -k RTR
+ -t 15.950525376 -s 4 -d 7 -p cbr -e 532 -c 2 -a 0 -i 27 -k RTR 
- -t 15.950525376 -s 4 -d 7 -p cbr -e 532 -c 2 -a 0 -i 27 -k RTR
h -t 15.950525376 -s 4 -d 7 -p cbr -e 532 -c 2 -a 0 -i 27 -k RTR
+ -t 15.956318376 -s 7 -d 13 -p cbr -e 532 -c 2 -a 0 -i 27 -k RTR 
- -t 15.956318376 -s 7 -d 13 -p cbr -e 532 -c 2 -a 0 -i 27 -k RTR
h -t 15.956318376 -s 7 -d 13 -p cbr -e 532 -c 2 -a 0 -i 27 -k RTR
r -t 15.962572376 -s 13 -d 13 -p cbr -e 512 -c 2 -a 0 -i 27 -k AGT
+ -t 15.970367714 -s 0 -d -1 -p cbr -e 512 -c 2 -a 0 -i 28 -k AGT 
- -t 15.970367714 -s 0 -d -1 -p cbr -e 512 -c 2 -a 0 -i 28 -k AGT
h -t 15.970367714 -s 0 -d -1 -p cbr -e 512 -c 2 -a 0 -i 28 -k AGT
+ -t 15.970367714 -s 0 -d 4 -p cbr -e 532 -c 2 -a 0 -i 28 -k RTR 
- -t 15.970367714 -s 0 -d 4 -p cbr -e 532 -c 2 -a 0 -i 28 -k RTR
h -t 15.970367714 -s 0 -d 4 -p cbr -e 532 -c 2 -a 0 -i 28 -k RTR
+ -t 15.975857951 -s 4 -d 7 -p cbr -e 532 -c 2 -a 0 -i 28 -k RTR 
- -t 15.975857951 -s 4 -d 7 -p cbr -e 532 -c 2 -a 0 -i 28 -k RTR
h -t 15.975857951 -s 4 -d 7 -p cbr -e 532 -c 2 -a 0 -i 28 -k RTR
+ -t 15.981950951 -s 7 -d 13 -p cbr -e 532 -c 2 -a 0 -i 28 -k RTR 
- -t 15.981950951 -s 7 -d 13 -p cbr -e 532 -c 2 -a 0 -i 28 -k RTR
h -t 15.981950951 -s 7 -d 13 -p cbr -e 532 -c 2 -a 0 -i 28 -k RTR
r -t 15.988224951 -s 13 -d 13 -p cbr -e 512 -c 2 -a 0 -i 28 -k AGT
+ -t 16.024057922 -s 0 -d -1 -p cbr -e 512 -c 2 -a 0 -i 29 -k AGT 
- -t 16.024057922 -s 0 -d -1 -p cbr -e 512 -c 2 -a 0 -i 29 -k AGT
h -t 16.024057922 -s 0 -d -1 -p cbr -e 512 -c 2 -a 0 -i 29 -k AGT
+ -t 16.024057922 -s 0 -d 4 -p cbr -e 532 -c 2 -a 0 -i 29 -k RTR 
- -t 16.024057922 -s 0 -d 4 -p cbr -e 532 -c 2 -a 0 -i 29 -k RTR
h -t 16.024057922 -s 0 -d 4 -p cbr -e 532 -c 2 -a 0 -i 29 -k RTR
+ -t 16.029788159 -s 4 -d 7 -p cbr -e 532 -c 2 -a 0 -i 29 -k RTR 
- -t 16.029788159 -s 4 -d 7 -p cbr -e 532 -c 2 -a 0 -i 29 -k RTR
h -t 16.029788159 -s 4 -d 7 -p cbr -e 532 -c 2 -a 0 -i 29 -k RTR
+ -t 16.035801159 -s 7 -d 13 -p cbr -e 532 -c 2 -a 0 -i 29 -k RTR 
- -t 16.035801159 -s 7 -d 13 -p cbr -e 532 -c 2 -a 0 -i 29 -k RTR
h -t 16.035801159 -s 7 -d 13 -p cbr -e 532 -c 2 -a 0 -i 29 -k RTR
r -t 16.041535159 -s 13 -d 13 -p cbr -e 512 -c 2 -a 0 -i 29 -k AGT
+ -t 16.099022973 -s 0 -d -1 -p cbr -e 512 -c 2 -a 0 -i 30 -k AGT 
- -t 16.099022973 -s 0 -d -1 -p cbr -e 512 -c 2 -a 0 -i 30 -k AGT
h -t 16.099022973 -s 0 -d -1 -p cbr -e 512 -c 2 -a 0 -i 30 -k AGT
+ -t 16.099022973 -s 0 -d 4 -p cbr -e 532 -c 2 -a 0 -i 30 -k RTR 
- -t 16.099022973 -s 0 -d 4 -p cbr -e 532 -c 2 -a 0 -i 30 -k RTR
h -t 16.099022973 -s 0 -d 4 -p cbr -e 532 -c 2 -a 0 -i 30 -k RTR
+ -t 16.104773209 -s 4 -d 7 -p cbr -e 532 -c 2 -a 0 -i 30 -k RTR 
- -t 16.104773209 -s 4 -d 7 -p cbr -e 532 -c 2 -a 0 -i 30 -k RTR
h -t 16.104773209 -s 4 -d 7 -p cbr -e 532 -c 2 -a 0 -i 30 -k RTR
+ -t 16.110666209 -s 7 -d 13 -p cbr -e 532 -c 2 -a 0 -i 30 -k RTR 
- -t 16.110666209 -s 7 -d 13 -p cbr -e 532 -c 2 -a 0 -i 30 -k RTR
h -t 16.110666209 -s 7 -d 13 -p cbr -e 532 -c 2 -a 0 -i 30 -k RTR
r -t 16.116920209 -s 13 -d 13 -p cbr -e 512 -c 2 -a 0 -i 30 -k AGT
+ -t 16.138458267 -s 0 -d -1 -p cbr -e 512 -c 2 -a 0 -i 31 -k AGT 
- -t 16.138458267 -s 0 -d -1 -p cbr -e 512 -c 2 -a 0 -i 31 -k AGT
h -t 16.138458267 -s 0 -d -1 -p cbr -e 512 -c 2 -a 0 -i 31 -k AGT
+ -t 16.138458267 -s 0 -d 4 -p cbr -e 532 -c 2 -a 0 -i 31 -k RTR 
- -t 16.138458267 -s 0 -d 4 -p cbr -e 532 -c 2 -a 0 -i 31 -k RTR
h -t 16.138458267 -s 0 -d 4 -p cbr -e 532 -c 2 -a 0 -i 31 -k RTR
+ -t 16.144388503 -s 4 -d 7 -p cbr -e 532 -c 2 -a 0 -i 31 -k RTR 
- -t 16.144388503 -s 4 -d 7 -p cbr -e 532 -c 2 -a 0 -i 31 -k RTR
h -t 16.144388503 -s 4 -d 7 -p cbr -e 532 -c 2 -a 0 -i 31 -k RTR
+ -t 16.150621503 -s 7 -d 13 -p cbr -e 532 -c 2 -a 0 -i 31 -k RTR 
- -t 16.150621503 -s 7 -d 13 -p cbr -e 532 -c 2 -a 0 -i 31 -k RTR
h -t 16.150621503 -s 7 -d 13 -p cbr -e 532 -c 2 -a 0 -i 31 -k RTR
r -t 16.156475503 -s 13 -d 13 -p cbr -e 512 -c 2 -a 0 -i 31 -k AGT
+ -t 16.181167805 -s 0 -d -1 -p cbr -e 512 -c 2 -a 0 -i 32 -k AGT 
- -t 16.181167805 -s 0 -d -1 -p cbr -e 512 -c 2 -a 0 -i 32 -k AGT
h -t 16.181167805 -s 0 -d -1 -p cbr -e 512 -c 2 -a 0 -i 32 -k AGT
+ -t 16.181167805 -s 0 -d 4 -p cbr -e 532 -c 2 -a 0 -i 32 -k RTR 
- -t 16.181167805 -s 0 -d 4 -p cbr -e 532 -c 2 -a 0 -i 32 -k RTR
h -t 16.181167805 -s 0 -d 4 -p cbr -e 532 -c 2 -a 0 -i 32 -k RTR
+ -t 16.186958041 -s 4 -d 7 -p cbr -e 532 -c 2 -a 0 -i 32 -k RTR 
- -t 16.186958041 -s 4 -d 7 -p cbr -e 532 -c 2 -a 0 -i 32 -k RTR
h -t 16.186958041 -s 4 -d 7 -p cbr -e 532 -c 2 -a 0 -i 32 -k RTR
+ -t 16.192831041 -s 7 -d 13 -p cbr -e 532 -c 2 -a 0 -i 32 -k RTR 
- -t 16.192831041 -s 7 -d 13 -p cbr -e 532 -c 2 -a 0 -i 32 -k RTR
h -t 16.192831041 -s 7 -d 13 -p cbr -e 532 -c 2 -a 0 -i 32 -k RTR
r -t 16.198865041 -s 13 -d 13 -p cbr -e 512 -c 2 -a 0 -i 32 -k AGT
+ -t 16.214778287 -s 0 -d -1 -p cbr -e 512 -c 2 -a 0 -i 33 -k AGT 
- -t 16.214778287 -s 0 -d -1 -p cbr -e 512 -c 2 -a 0 -i 33 -k AGT
h -t 16.214778287 -s 0 -d -1 -p cbr -e 512 -c 2 -a 0 -i 33 -k AGT
+ -t 16.214778287 -s 0 -d 4 -p cbr -e 532 -c 2 -a 0 -i 33 -k RTR 
- -t 16.214778287 -s 0 -d 4 -p cbr -e 532 -c 2 -a 0 -i 33 -k RTR
h -t 16.214778287 -s 0 -d 4 -p cbr -e 532 -c 2 -a 0 -i 33 -k RTR
+ -t 16.220628523 -s 4 -d 7 -p cbr -e 532 -c 2 -a 0 -i 33 -k RTR 
- -t 16.220628523 -s 4 -d 7 -p cbr -e 532 -c 2 -a 0 -i 33 -k RTR
h -t 16.220628523 -s 4 -d 7 -p cbr -e 532 -c 2 -a 0 -i 33 -k RTR
+ -t 16.226721523 -s 7 -d 13 -p cbr -e 532 -c 2 -a 0 -i 33 -k RTR 
- -t 16.226721523 -s 7 -d 13 -p cbr -e 532 -c 2 -a 0 -i 33 -k RTR
h -t 16.226721523 -s 7 -d 13 -p cbr -e 532 -c 2 -a 0 -i 33 -k RTR
r -t 16.232735523 -s 13 -d 13 -p cbr -e 512 -c 2 -a 0 -i 33 -k AGT
+ -t 16.278154411 -s 0 -d -1 -p cbr -e 512 -c 2 -a 0 -i 34 -k AGT 
- -t 16.278154411 -s 0 -d -1 -p cbr -e 512 -c 2 -a 0 -i 34 -k AGT
h -t 16.278154411 -s 0 -d -1 -p cbr -e 512 -c 2 -a 0 -i 34 -k AGT
+ -t 16.278154411 -s 0 -d 4 -p cbr -e 532 -c 2 -a 0 -i 34 -k RTR 
- -t 16.278154411 -s 0 -d 4 -p cbr -e 532 -c 2 -a 0 -i 34 -k RTR
h -t 16.278154411 -s 0 -d 4 -p cbr -e 532 -c 2 -a 0 -i 34 -k RTR
+ -t 16.284104647 -s 4 -d 7 -p cbr -e 532 -c 2 -a 0 -i 34 -k RTR 
- -t 16.284104647 -s 4 -d 7 -p cbr -e 532 -c 2 -a 0 -i 34 -k RTR
h -t 16.284104647 -s 4 -d 7 -p cbr -e 532 -c 2 -a 0 -i 34 -k RTR
+ -t 16.290017647 -s 7 -d 13 -p cbr -e 532 -c 2 -a 0 -i 34 -k RTR 
- -t 16.290017647 -s 7 -d 13 -p cbr -e 532 -c 2 -a 0 -i 34 -k RTR
h -t 16.290017647 -s 7 -d 13 -p cbr -e 532 -c 2 -a 0 -i 34 -k RTR
r -t 16.296071647 -s 13 -d 13 -p cbr -e 512 -c 2 -a 0 -i 34 -k AGT
+ -t 16.348290281 -s 0 -d -1 -p cbr -e 512 -c 2 -a 0 -i 35 -k AGT 
- -t 16.348290281 -s 0 -d -1 -p cbr -e 512 -c 2 -a 0 -i 35 -k AGT
h -t 16.348290281 -s 0 -d -1 -p cbr -e 512 -c 2 -a 0 -i 35 -k AGT
+ -t 16.348290281 -s 0 -d 4 -p cbr -e 532 -c 2 -a 0 -i 35 -k RTR 
- -t 16.348290281 -s 0 -d 4 -p cbr -e 532 -c 2 -a 0 -i 35 -k RTR
h -t 16.348290281 -s 0 -d 4 -p cbr -e 532 -c 2 -a 0 -i 35 -k RTR
+ -t 16.354000517 -s 4 -d 7 -p cbr -e 532 -c 2 -a 0 -i 35 -k RTR 
- -t 16.354000517 -s 4 -d 7 -p cbr -e 532 -c 2 -a 0 -i 35 -k RTR
h -t 16.354000517 -s 4 -d 7 -p cbr -e 532 -c 2 -a 0 -i 35 -k RTR
+ -t 16.360173517 -s 7 -d 13 -p cbr -e 532 -c 2 -a 0 -i 35 -k RTR 
- -t 16.360173517 -s 7 -d 13 -p cbr -e 532 -c 2 -a 0 -i 35 -k RTR
h -t 16.360173517 -s 7 -d 13 -p cbr -e 532 -c 2 -a 0 -i 35 -k RTR
r -t 16.366127517 -s 13 -d 13 -p cbr -e 512 -c 2 -a 0 -i 35 -k AGT
+ -t 16.418955278 -s 0 -d -1 -p cbr -e 512 -c 2 -a 0 -i 36 -k AGT 
- -t 16.418955278 -s 0 -d -1 -p cbr -e 512 -c 2 -a 0 -i 36 -k AGT
h -t 16.418955278 -s 0 -d -1 -p cbr -e 512 -c 2 -a 0 -i 36 -k AGT
+ -t 16.418955278 -s 0 -d 4 -p cbr -e 532 -c 2 -a 0 -i 36 -k RTR 
- -t 16.418955278 -s 0 -d 4 -p cbr -e 532 -c 2 -a 0 -i 36 -k RTR
h -t 16.418955278 -s 0 -d 4 -p cbr -e 532 -c 2 -a 0 -i 36 -k RTR
+ -t 16.424425514 -s 4 -d 7 -p cbr -e 532 -c 2 -a 0 -i 36 -k RTR 
- -t 16.424425514 -s 4 -d 7 -p cbr -e 532 -c 2 -a 0 -i 36 -k RTR