Sconfig 0.00000 tap: on snoop: rts? on errs? on
Sconfig 0.00000 salvage: on !bd replies? on
Sconfig 0.00000 grat error: on grat reply: on
Sconfig 0.00000 $reply for props: on ring 0 search: on
Sconfig 0.00000 using MOBICACHE
s 15.000000000 _0_ AGT  --- 0 cbr 512 [0 0 0 0] ------- [0:0 16:0 32 0] [0] 0 0
r 15.000000000 _0_ RTR  --- 0 cbr 512 [0 0 0 0] ------- [0:0 16:0 32 0] [0] 0 0
s 15.001315927 _0_ RTR  --- 1 DSR 32 [0 0 0 0] ------- [0:255 16:255 32 0] 1 [1 1] [0 1 0 0->0] [0 0 0 0->0]
r 15.002468261 _3_ RTR  --- 1 DSR 32 [0 ffffffff 0 800] ------- [0:255 16:255 32 0] 1 [1 1] [0 1 0 0->0] [0 0 0 0->0]
r 15.002468594 _6_ RTR  --- 1 DSR 32 [0 ffffffff 0 800] ------- [0:255 16:255 32 0] 1 [1 1] [0 1 0 0->0] [0 0 0 0->0]
r 15.002468594 _1_ RTR  --- 1 DSR 32 [0 ffffffff 0 800] ------- [0:255 16:255 32 0] 1 [1 1] [0 1 0 0->0] [0 0 0 0->0]
r 15.002468673 _4_ RTR  --- 1 DSR 32 [0 ffffffff 0 800] ------- [0:255 16:255 32 0] 1 [1 1] [0 1 0 0->0] [0 0 0 0->0]
s 15.052265909 _0_ AGT  --- 3 cbr 512 [0 0 0 0] ------- [0:0 16:0 32 0] [1] 0 0
r 15.052265909 _0_ RTR  --- 3 cbr 512 [0 0 0 0] ------- [0:0 16:0 32 0] [1] 0 0
s 15.061845158 _0_ RTR  --- 4 DSR 32 [0 0 0 0] ------- [0:255 16:255 32 0] 1 [1 2] [0 2 0 0->16] [0 0 0 0->0]
r 15.063077491 _3_ RTR  --- 4 DSR 32 [0 ffffffff 0 800] ------- [0:255 16:255 32 0] 1 [1 2] [0 2 0 0->16] [0 0 0 0->0]
r 15.063077824 _6_ RTR  --- 4 DSR 32 [0 ffffffff 0 800] ------- [0:255 16:255 32 0] 1 [1 2] [0 2 0 0->16] [0 0 0 0->0]
r 15.063077824 _1_ RTR  --- 4 DSR 32 [0 ffffffff 0 800] ------- [0:255 16:255 32 0] 1 [1 2] [0 2 0 0->16] [0 0 0 0->0]
r 15.063077903 _4_ RTR  --- 4 DSR 32 [0 ffffffff 0 800] ------- [0:255 16:255 32 0] 1 [1 2] [0 2 0 0->16] [0 0 0 0->0]
f 15.063401815 _1_ RTR  --- 4 DSR 48 [0 ffffffff 0 800] ------- [0:255 16:255 32 0] 2 [1 2] [0 2 0 0->16] [0 0 0 0->0]
f 15.064117387 _6_ RTR  --- 4 DSR 48 [0 ffffffff 0 800] ------- [0:255 16:255 32 0] 2 [1 2] [0 2 0 0->16] [0 0 0 0->0]
r 15.064402148 _4_ RTR  --- 4 DSR 48 [0 ffffffff 1 800] ------- [0:255 16:255 32 0] 2 [1 2] [0 2 0 0->16] [0 0 0 0->0]
r 15.064402482 _0_ RTR  --- 4 DSR 48 [0 ffffffff 1 800] ------- [0:255 16:255 32 0] 2 [1 2] [0 2 0 0->16] [0 0 0 0->0]
r 15.064402482 _7_ RTR  --- 4 DSR 48 [0 ffffffff 1 800] ------- [0:255 16:255 32 0] 2 [1 2] [0 2 0 0->16] [0 0 0 0->0]
r 15.064402482 _2_ RTR  --- 4 DSR 48 [0 ffffffff 1 800] ------- [0:255 16:255 32 0] 2 [1 2] [0 2 0 0->16] [0 0 0 0->0]
r 15.064402560 _3_ RTR  --- 4 DSR 48 [0 ffffffff 1 800] ------- [0:255 16:255 32 0] 2 [1 2] [0 2 0 0->16] [0 0 0 0->0]
r 15.064402560 _5_ RTR  --- 4 DSR 48 [0 ffffffff 1 800] ------- [0:255 16:255 32 0] 2 [1 2] [0 2 0 0->16] [0 0 0 0->0]
f 15.065462614 _2_ RTR  --- 4 DSR 68 [0 ffffffff 1 800] ------- [0:255 16:255 32 0] 3 [1 2] [0 2 0 0->16] [0 0 0 0->0]
r 15.065957091 _3_ RTR  --- 4 DSR 48 [0 ffffffff 6 800] ------- [0:255 16:255 32 0] 2 [1 2] [0 2 0 0->16] [0 0 0 0->0]
r 15.065957091 _9_ RTR  --- 4 DSR 48 [0 ffffffff 6 800] ------- [0:255 16:255 32 0] 2 [1 2] [0 2 0 0->16] [0 0 0 0->0]
r 15.065957424 _0_ RTR  --- 4 DSR 48 [0 ffffffff 6 800] ------- [0:255 16:255 32 0] 2 [1 2] [0 2 0 0->16] [0 0 0 0->0]
r 15.065957424 _12_ RTR  --- 4 DSR 48 [0 ffffffff 6 800] ------- [0:255 16:255 32 0] 2 [1 2] [0 2 0 0->16] [0 0 0 0->0]
r 15.065957424 _7_ RTR  --- 4 DSR 48 [0 ffffffff 6 800] ------- [0:255 16:255 32 0] 2 [1 2] [0 2 0 0->16] [0 0 0 0->0]
r 15.065957503 _21_ RTR  --- 4 DSR 48 [0 ffffffff 6 800] ------- [0:255 16:255 32 0] 2 [1 2] [0 2 0 0->16] [0 0 0 0->0]
r 15.065957503 _4_ RTR  --- 4 DSR 48 [0 ffffffff 6 800] ------- [0:255 16:255 32 0] 2 [1 2] [0 2 0 0->16] [0 0 0 0->0]
r 15.065957503 _10_ RTR  --- 4 DSR 48 [0 ffffffff 6 800] ------- [0:255 16:255 32 0] 2 [1 2] [0 2 0 0->16] [0 0 0 0->0]
f 15.066046381 _7_ RTR  --- 4 DSR 68 [0 ffffffff 1 800] ------- [0:255 16:255 32 0] 3 [1 2] [0 2 0 0->16] [0 0 0 0->0]
r 15.067526714 _4_ RTR  --- 4 DSR 68 [0 ffffffff 7 800] ------- [0:255 16:255 32 0] 3 [1 2] [0 2 0 0->16] [0 0 0 0->0]
r 15.067526714 _10_ RTR  --- 4 DSR 68 [0 ffffffff 7 800] ------- [0:255 16:255 32 0] 3 [1 2] [0 2 0 0->16] [0 0 0 0->0]
r 15.067526852 _22_ RTR  --- 4 DSR 68 [0 ffffffff 7 800] ------- [0:255 16:255 32 0] 3 [1 2] [0 2 0 0->16] [0 0 0 0->0]
r 15.067527047 _1_ RTR  --- 4 DSR 68 [0 ffffffff 7 800] ------- [0:255 16:255 32 0] 3 [1 2] [0 2 0 0->16] [0 0 0 0->0]
r 15.067527047 _6_ RTR  --- 4 DSR 68 [0 ffffffff 7 800] ------- [0:255 16:255 32 0] 3 [1 2] [0 2 0 0->16] [0 0 0 0->0]
r 15.067527047 _13_ RTR  --- 4 DSR 68 [0 ffffffff 7 800] ------- [0:255 16:255 32 0] 3 [1 2] [0 2 0 0->16] [0 0 0 0->0]
r 15.067527047 _8_ RTR  --- 4 DSR 68 [0 ffffffff 7 800] ------- [0:255 16:255 32 0] 3 [1 2] [0 2 0 0->16] [0 0 0 0->0]
r 15.067527126 _21_ RTR  --- 4 DSR 68 [0 ffffffff 7 800] ------- [0:255 16:255 32 0] 3 [1 2] [0 2 0 0->16] [0 0 0 0->0]
r 15.067527126 _9_ RTR  --- 4 DSR 68 [0 ffffffff 7 800] ------- [0:255 16:255 32 0] 3 [1 2] [0 2 0 0->16] [0 0 0 0->0]
r 15.067527126 _3_ RTR  --- 4 DSR 68 [0 ffffffff 7 800] ------- [0:255 16:255 32 0] 3 [1 2] [0 2 0 0->16] [0 0 0 0->0]
r 15.067527126 _20_ RTR  --- 4 DSR 68 [0 ffffffff 7 800] ------- [0:255 16:255 32 0] 3 [1 2] [0 2 0 0->16] [0 0 0 0->0]
r 15.067527126 _5_ RTR  --- 4 DSR 68 [0 ffffffff 7 800] ------- [0:255 16:255 32 0] 3 [1 2] [0 2 0 0->16] [0 0 0 0->0]
r 15.067527126 _11_ RTR  --- 4 DSR 68 [0 ffffffff 7 800] ------- [0:255 16:255 32 0] 3 [1 2] [0 2 0 0->16] [0 0 0 0->0]
f 15.067843455 _11_ RTR  --- 4 DSR 92 [0 ffffffff 7 800] ------- [0:255 16:255 32 0] 4 [1 2] [0 2 0 0->16] [0 0 0 0->0]
f 15.068345071 _13_ RTR  --- 4 DSR 92 [0 ffffffff 7 800] ------- [0:255 16:255 32 0] 4 [1 2] [0 2 0 0->16] [0 0 0 0->0]
r 15.069095788 _8_ RTR  --- 4 DSR 92 [0 ffffffff b 800] ------- [0:255 16:255 32 0] 4 [1 2] [0 2 0 0->16] [0 0 0 0->0]
r 15.069095788 _22_ RTR  --- 4 DSR 92 [0 ffffffff b 800] ------- [0:255 16:255 32 0] 4 [1 2] [0 2 0 0->16] [0 0 0 0->0]
r 15.069095788 _14_ RTR  --- 4 DSR 92 [0 ffffffff b 800] ------- [0:255 16:255 32 0] 4 [1 2] [0 2 0 0->16] [0 0 0 0->0]
r 15.069095926 _20_ RTR  --- 4 DSR 92 [0 ffffffff b 800] ------- [0:255 16:255 32 0] 4 [1 2] [0 2 0 0->16] [0 0 0 0->0]
r 15.069096121 _5_ RTR  --- 4 DSR 92 [0 ffffffff b 800] ------- [0:255 16:255 32 0] 4 [1 2] [0 2 0 0->16] [0 0 0 0->0]
r 15.069096121 _10_ RTR  --- 4 DSR 92 [0 ffffffff b 800] ------- [0:255 16:255 32 0] 4 [1 2] [0 2 0 0->16] [0 0 0 0->0]
r 15.069096121 _17_ RTR  --- 4 DSR 92 [0 ffffffff b 800] ------- [0:255 16:255 32 0] 4 [1 2] [0 2 0 0->16] [0 0 0 0->0]
r 15.069096200 _18_ RTR  --- 4 DSR 92 [0 ffffffff b 800] ------- [0:255 16:255 32 0] 4 [1 2] [0 2 0 0->16] [0 0 0 0->0]
r 15.069096200 _13_ RTR  --- 4 DSR 92 [0 ffffffff b 800] ------- [0:255 16:255 32 0] 4 [1 2] [0 2 0 0->16] [0 0 0 0->0]
r 15.069096200 _7_ RTR  --- 4 DSR 92 [0 ffffffff b 800] ------- [0:255 16:255 32 0] 4 [1 2] [0 2 0 0->16] [0 0 0 0->0]
f 15.069242857 _5_ RTR  --- 4 DSR 68 [0 ffffffff 1 800] ------- [0:255 16:255 32 0] 3 [1 2] [0 2 0 0->16] [0 0 0 0->0]
f 15.069262576 _10_ RTR  --- 4 DSR 68 [0 ffffffff 6 800] ------- [0:255 16:255 32 0] 3 [1 2] [0 2 0 0->16] [0 0 0 0->0]
f 15.069551759 _18_ RTR  --- 4 DSR 120 [0 ffffffff b 800] ------- [0:255 16:255 32 0] 5 [1 2] [0 2 0 0->16] [0 0 0 0->0]
f 15.069886911 _4_ RTR  --- 4 DSR 48 [0 ffffffff 0 800] ------- [0:255 16:255 32 0] 2 [1 2] [0 2 0 0->16] [0 0 0 0->0]
f 15.070153231 _12_ RTR  --- 4 DSR 68 [0 ffffffff 6 800] ------- [0:255 16:255 32 0] 3 [1 2] [0 2 0 0->16] [0 0 0 0->0]
r 15.070582910 _7_ RTR  --- 4 DSR 68 [0 ffffffff a 800] ------- [0:255 16:255 32 0] 3 [1 2] [0 2 0 0->16] [0 0 0 0->0]
r 15.070582910 _13_ RTR  --- 4 DSR 68 [0 ffffffff a 800] ------- [0:255 16:255 32 0] 3 [1 2] [0 2 0 0->16] [0 0 0 0->0]
r 15.070582910 _22_ RTR  --- 4 DSR 68 [0 ffffffff a 800] ------- [0:255 16:255 32 0] 3 [1 2] [0 2 0 0->16] [0 0 0 0->0]
r 15.070583048 _21_ RTR  --- 4 DSR 68 [0 ffffffff a 800] ------- [0:255 16:255 32 0] 3 [1 2] [0 2 0 0->16] [0 0 0 0->0]
r 15.070583048 _20_ RTR  --- 4 DSR 68 [0 ffffffff a 800] ------- [0:255 16:255 32 0] 3 [1 2] [0 2 0 0->16] [0 0 0 0->0]
r 15.070583243 _4_ RTR  --- 4 DSR 68 [0 ffffffff a 800] ------- [0:255 16:255 32 0] 3 [1 2] [0 2 0 0->16] [0 0 0 0->0]
r 15.070583243 _9_ RTR  --- 4 DSR 68 [0 ffffffff a 800] ------- [0:255 16:255 32 0] 3 [1 2] [0 2 0 0->16] [0 0 0 0->0]
r 15.070583243 _16_ RTR  --- 4 DSR 68 [0 ffffffff a 800] ------- [0:255 16:255 32 0] 3 [1 2] [0 2 0 0->16] [0 0 0 0->0]
r 15.070583243 _11_ RTR  --- 4 DSR 68 [0 ffffffff a 800] ------- [0:255 16:255 32 0] 3 [1 2] [0 2 0 0->16] [0 0 0 0->0]
r 15.070583322 _19_ RTR  --- 4 DSR 68 [0 ffffffff a 800] ------- [0:255 16:255 32 0] 3 [1 2] [0 2 0 0->16] [0 0 0 0->0]
r 15.070583322 _12_ RTR  --- 4 DSR 68 [0 ffffffff a 800] ------- [0:255 16:255 32 0] 3 [1 2] [0 2 0 0->16] [0 0 0 0->0]
r 15.070583322 _6_ RTR  --- 4 DSR 68 [0 ffffffff a 800] ------- [0:255 16:255 32 0] 3 [1 2] [0 2 0 0->16] [0 0 0 0->0]
r 15.070583322 _18_ RTR  --- 4 DSR 68 [0 ffffffff a 800] ------- [0:255 16:255 32 0] 3 [1 2] [0 2 0 0->16] [0 0 0 0->0]
r 15.070583322 _8_ RTR  --- 4 DSR 68 [0 ffffffff a 800] ------- [0:255 16:255 32 0] 3 [1 2] [0 2 0 0->16] [0 0 0 0->0]
r 15.070583322 _14_ RTR  --- 4 DSR 68 [0 ffffffff a 800] ------- [0:255 16:255 32 0] 3 [1 2] [0 2 0 0->16] [0 0 0 0->0]
f 15.071554361 _22_ RTR  --- 4 DSR 92 [0 ffffffff 7 800] ------- [0:255 16:255 32 0] 4 [1 2] [0 2 0 0->16] [0 0 0 0->0]
f 15.071780918 _3_ RTR  --- 4 DSR 48 [0 ffffffff 0 800] ------- [0:255 16:255 32 0] 2 [1 2] [0 2 0 0->16] [0 0 0 0->0]
r 15.071845243 _10_ RTR  --- 4 DSR 92 [0 ffffffff d 800] ------- [0:255 16:255 32 0] 4 [1 2] [0 2 0 0->16] [0 0 0 0->0]
r 15.071845243 _21_ RTR  --- 4 DSR 92 [0 ffffffff d 800] ------- [0:255 16:255 32 0] 4 [1 2] [0 2 0 0->16] [0 0 0 0->0]
r 15.071845243 _16_ RTR  --- 4 DSR 92 [0 ffffffff d 800] ------- [0:255 16:255 32 0] 4 [1 2] [0 2 0 0->16] [0 0 0 0->0]
r 15.071845243 _20_ RTR  --- 4 DSR 92 [0 ffffffff d 800] ------- [0:255 16:255 32 0] 4 [1 2] [0 2 0 0->16] [0 0 0 0->0]
r 15.071845381 _19_ RTR  --- 4 DSR 92 [0 ffffffff d 800] ------- [0:255 16:255 32 0] 4 [1 2] [0 2 0 0->16] [0 0 0 0->0]
r 15.071845381 _18_ RTR  --- 4 DSR 92 [0 ffffffff d 800] ------- [0:255 16:255 32 0] 4 [1 2] [0 2 0 0->16] [0 0 0 0->0]
r 15.071845381 _22_ RTR  --- 4 DSR 92 [0 ffffffff d 800] ------- [0:255 16:255 32 0] 4 [1 2] [0 2 0 0->16] [0 0 0 0->0]
r 15.071845576 _7_ RTR  --- 4 DSR 92 [0 ffffffff d 800] ------- [0:255 16:255 32 0] 4 [1 2] [0 2 0 0->16] [0 0 0 0->0]
r 15.071845576 _12_ RTR  --- 4 DSR 92 [0 ffffffff d 800] ------- [0:255 16:255 32 0] 4 [1 2] [0 2 0 0->16] [0 0 0 0->0]
r 15.071845576 _14_ RTR  --- 4 DSR 92 [0 ffffffff d 800] ------- [0:255 16:255 32 0] 4 [1 2] [0 2 0 0->16] [0 0 0 0->0]
r 15.071845655 _15_ RTR  --- 4 DSR 92 [0 ffffffff d 800] ------- [0:255 16:255 32 0] 4 [1 2] [0 2 0 0->16] [0 0 0 0->0]
r 15.071845655 _9_ RTR  --- 4 DSR 92 [0 ffffffff d 800] ------- [0:255 16:255 32 0] 4 [1 2] [0 2 0 0->16] [0 0 0 0->0]
r 15.071845655 _11_ RTR  --- 4 DSR 92 [0 ffffffff d 800] ------- [0:255 16:255 32 0] 4 [1 2] [0 2 0 0->16] [0 0 0 0->0]
r 15.071845655 _17_ RTR  --- 4 DSR 92 [0 ffffffff d 800] ------- [0:255 16:255 32 0] 4 [1 2] [0 2 0 0->16] [0 0 0 0->0]
f 15.072894001 _20_ RTR  --- 4 DSR 92 [0 ffffffff 7 800] ------- [0:255 16:255 32 0] 4 [1 2] [0 2 0 0->16] [0 0 0 0->0]
r 15.072895910 _9_ RTR  --- 4 DSR 68 [0 ffffffff c 800] ------- [0:255 16:255 32 0] 3 [1 2] [0 2 0 0->16] [0 0 0 0->0]
r 15.072895910 _15_ RTR  --- 4 DSR 68 [0 ffffffff c 800] ------- [0:255 16:255 32 0] 3 [1 2] [0 2 0 0->16] [0 0 0 0->0]
r 15.072895910 _21_ RTR  --- 4 DSR 68 [0 ffffffff c 800] ------- [0:255 16:255 32 0] 3 [1 2] [0 2 0 0->16] [0 0 0 0->0]
r 15.072896048 _19_ RTR  --- 4 DSR 68 [0 ffffffff c 800] ------- [0:255 16:255 32 0] 3 [1 2] [0 2 0 0->16] [0 0 0 0->0]
r 15.072896243 _6_ RTR  --- 4 DSR 68 [0 ffffffff c 800] ------- [0:255 16:255 32 0] 3 [1 2] [0 2 0 0->16] [0 0 0 0->0]
r 15.072896243 _13_ RTR  --- 4 DSR 68 [0 ffffffff c 800] ------- [0:255 16:255 32 0] 3 [1 2] [0 2 0 0->16] [0 0 0 0->0]
r 15.072896322 _16_ RTR  --- 4 DSR 68 [0 ffffffff c 800] ------- [0:255 16:255 32 0] 3 [1 2] [0 2 0 0->16] [0 0 0 0->0]
f 15.073193793 _8_ RTR  --- 4 DSR 92 [0 ffffffff 7 800] ------- [0:255 16:255 32 0] 4 [1 2] [0 2 0 0->16] [0 0 0 0->0]
f 15.073227764 _14_ RTR  --- 4 DSR 120 [0 ffffffff b 800] ------- [0:255 16:255 32 0] 5 [1 2] [0 2 0 0->16] [0 0 0 0->0]
f 15.073266816 _9_ RTR  --- 4 DSR 68 [0 ffffffff 6 800] ------- [0:255 16:255 32 0] 3 [1 2] [0 2 0 0->16] [0 0 0 0->0]
f 15.073486847 _19_ RTR  --- 4 DSR 92 [0 ffffffff a 800] ------- [0:255 16:255 32 0] 4 [1 2] [0 2 0 0->16] [0 0 0 0->0]
f 15.073606968 _21_ RTR  --- 4 DSR 68 [0 ffffffff 6 800] ------- [0:255 16:255 32 0] 3 [1 2] [0 2 0 0->16] [0 0 0 0->0]
r 15.075147788 _20_ RTR  --- 4 DSR 92 [0 ffffffff 16 800] ------- [0:255 16:255 32 0] 4 [1 2] [0 2 0 0->16] [0 0 0 0->0]
r 15.075148108 _18_ RTR  --- 4 DSR 92 [0 ffffffff 14 800] ------- [0:255 16:255 32 0] 4 [1 2] [0 2 0 0->16] [0 0 0 0->0]
r 15.075148108 _22_ RTR  --- 4 DSR 92 [0 ffffffff 14 800] ------- [0:255 16:255 32 0] 4 [1 2] [0 2 0 0->16] [0 0 0 0->0]
s 15.075671201 _16_ RTR  --- 7 DSR 60 [0 0 0 0] ------- [16:255 0:255 254 10] 4 [0 2] [1 2 4 0->16] [0 0 0 0->0]
s 15.076067554 _16_ RTR  --- 8 DSR 68 [0 0 0 0] ------- [16:255 0:255 254 13] 5 [0 2] [1 2 5 0->16] [0 0 0 0->0]
r 15.076623162 _2_ RTR  --- 4 DSR 68 [0 ffffffff 5 800] ------- [0:255 16:255 32 0] 3 [1 2] [0 2 0 0->16] [0 0 0 0->0]
r 15.076623162 _8_ RTR  --- 4 DSR 68 [0 ffffffff 5 800] ------- [0:255 16:255 32 0] 3 [1 2] [0 2 0 0->16] [0 0 0 0->0]
r 15.076623495 _4_ RTR  --- 4 DSR 68 [0 ffffffff 5 800] ------- [0:255 16:255 32 0] 3 [1 2] [0 2 0 0->16] [0 0 0 0->0]
r 15.076623495 _11_ RTR  --- 4 DSR 68 [0 ffffffff 5 800] ------- [0:255 16:255 32 0] 3 [1 2] [0 2 0 0->16] [0 0 0 0->0]
r 15.076623574 _1_ RTR  --- 4 DSR 68 [0 ffffffff 5 800] ------- [0:255 16:255 32 0] 3 [1 2] [0 2 0 0->16] [0 0 0 0->0]
r 15.076814853 _15_ RTR  --- 4 DSR 92 [0 ffffffff 13 800] ------- [0:255 16:255 32 0] 4 [1 2] [0 2 0 0->16] [0 0 0 0->0]
r 15.076814853 _21_ RTR  --- 4 DSR 92 [0 ffffffff 13 800] ------- [0:255 16:255 32 0] 4 [1 2] [0 2 0 0->16] [0 0 0 0->0]
r 15.076814853 _16_ RTR  --- 4 DSR 92 [0 ffffffff 13 800] ------- [0:255 16:255 32 0] 4 [1 2] [0 2 0 0->16] [0 0 0 0->0]
r 15.076814991 _12_ RTR  --- 4 DSR 92 [0 ffffffff 13 800] ------- [0:255 16:255 32 0] 4 [1 2] [0 2 0 0->16] [0 0 0 0->0]
r 15.076814991 _13_ RTR  --- 4 DSR 92 [0 ffffffff 13 800] ------- [0:255 16:255 32 0] 4 [1 2] [0 2 0 0->16] [0 0 0 0->0]
r 15.076815187 _18_ RTR  --- 4 DSR 92 [0 ffffffff 13 800] ------- [0:255 16:255 32 0] 4 [1 2] [0 2 0 0->16] [0 0 0 0->0]
r 15.076815265 _9_ RTR  --- 4 DSR 92 [0 ffffffff 13 800] ------- [0:255 16:255 32 0] 4 [1 2] [0 2 0 0->16] [0 0 0 0->0]
f 15.077344613 _17_ RTR  --- 4 DSR 120 [0 ffffffff b 800] ------- [0:255 16:255 32 0] 5 [1 2] [0 2 0 0->16] [0 0 0 0->0]
f 15.077983026 _15_ RTR  --- 4 DSR 120 [0 ffffffff d 800] ------- [0:255 16:255 32 0] 5 [1 2] [0 2 0 0->16] [0 0 0 0->0]
r 15.078018576 _19_ RTR  --- 4 DSR 68 [0 ffffffff 15 800] ------- [0:255 16:255 32 0] 3 [1 2] [0 2 0 0->16] [0 0 0 0->0]
r 15.078018576 _12_ RTR  --- 4 DSR 68 [0 ffffffff 15 800] ------- [0:255 16:255 32 0] 3 [1 2] [0 2 0 0->16] [0 0 0 0->0]
r 15.078018576 _13_ RTR  --- 4 DSR 68 [0 ffffffff 15 800] ------- [0:255 16:255 32 0] 3 [1 2] [0 2 0 0->16] [0 0 0 0->0]
r 15.078018714 _15_ RTR  --- 4 DSR 68 [0 ffffffff 15 800] ------- [0:255 16:255 32 0] 3 [1 2] [0 2 0 0->16] [0 0 0 0->0]
r 15.078018714 _9_ RTR  --- 4 DSR 68 [0 ffffffff 15 800] ------- [0:255 16:255 32 0] 3 [1 2] [0 2 0 0->16] [0 0 0 0->0]
r 15.078018714 _10_ RTR  --- 4 DSR 68 [0 ffffffff 15 800] ------- [0:255 16:255 32 0] 3 [1 2] [0 2 0 0->16] [0 0 0 0->0]
r 15.078018714 _16_ RTR  --- 4 DSR 68 [0 ffffffff 15 800] ------- [0:255 16:255 32 0] 3 [1 2] [0 2 0 0->16] [0 0 0 0->0]
r 15.078018910 _20_ RTR  --- 4 DSR 68 [0 ffffffff 15 800] ------- [0:255 16:255 32 0] 3 [1 2] [0 2 0 0->16] [0 0 0 0->0]
r 15.078018988 _6_ RTR  --- 4 DSR 68 [0 ffffffff 15 800] ------- [0:255 16:255 32 0] 3 [1 2] [0 2 0 0->16] [0 0 0 0->0]
r 15.078018988 _7_ RTR  --- 4 DSR 68 [0 ffffffff 15 800] ------- [0:255 16:255 32 0] 3 [1 2] [0 2 0 0->16] [0 0 0 0->0]
r 15.078018988 _18_ RTR  --- 4 DSR 68 [0 ffffffff 15 800] ------- [0:255 16:255 32 0] 3 [1 2] [0 2 0 0->16] [0 0 0 0->0]
r 15.078018988 _22_ RTR  --- 4 DSR 68 [0 ffffffff 15 800] ------- [0:255 16:255 32 0] 3 [1 2] [0 2 0 0->16] [0 0 0 0->0]
r 15.079089048 _6_ RTR  --- 4 DSR 68 [0 ffffffff 9 800] ------- [0:255 16:255 32 0] 3 [1 2] [0 2 0 0->16] [0 0 0 0->0]
r 15.079089048 _12_ RTR  --- 4 DSR 68 [0 ffffffff 9 800] ------- [0:255 16:255 32 0] 3 [1 2] [0 2 0 0->16] [0 0 0 0->0]
r 15.079089186 _21_ RTR  --- 4 DSR 68 [0 ffffffff 9 800] ------- [0:255 16:255 32 0] 3 [1 2] [0 2 0 0->16] [0 0 0 0->0]
r 15.079089381 _3_ RTR  --- 4 DSR 68 [0 ffffffff 9 800] ------- [0:255 16:255 32 0] 3 [1 2] [0 2 0 0->16] [0 0 0 0->0]
r 15.079089381 _15_ RTR  --- 4 DSR 68 [0 ffffffff 9 800] ------- [0:255 16:255 32 0] 3 [1 2] [0 2 0 0->16] [0 0 0 0->0]
r 15.079089381 _10_ RTR  --- 4 DSR 68 [0 ffffffff 9 800] ------- [0:255 16:255 32 0] 3 [1 2] [0 2 0 0->16] [0 0 0 0->0]
r 15.079089460 _19_ RTR  --- 4 DSR 68 [0 ffffffff 9 800] ------- [0:255 16:255 32 0] 3 [1 2] [0 2 0 0->16] [0 0 0 0->0]
r 15.079089460 _7_ RTR  --- 4 DSR 68 [0 ffffffff 9 800] ------- [0:255 16:255 32 0] 3 [1 2] [0 2 0 0->16] [0 0 0 0->0]
r 15.079089460 _13_ RTR  --- 4 DSR 68 [0 ffffffff 9 800] ------- [0:255 16:255 32 0] 3 [1 2] [0 2 0 0->16] [0 0 0 0->0]
s 15.079502796 _16_ RTR  --- 9 DSR 60 [0 0 0 0] ------- [16:255 0:255 254 12] 4 [0 2] [1 2 4 0->16] [0 0 0 0->0]
r 15.079999714 _0_ RTR  --- 4 DSR 48 [0 ffffffff 3 800] ------- [0:255 16:255 32 0] 2 [1 2] [0 2 0 0->16] [0 0 0 0->0]
r 15.079999714 _6_ RTR  --- 4 DSR 48 [0 ffffffff 3 800] ------- [0:255 16:255 32 0] 2 [1 2] [0 2 0 0->16] [0 0 0 0->0]
r 15.080000048 _9_ RTR  --- 4 DSR 48 [0 ffffffff 3 800] ------- [0:255 16:255 32 0] 2 [1 2] [0 2 0 0->16] [0 0 0 0->0]
r 15.080000048 _4_ RTR  --- 4 DSR 48 [0 ffffffff 3 800] ------- [0:255 16:255 32 0] 2 [1 2] [0 2 0 0->16] [0 0 0 0->0]
r 15.080000126 _1_ RTR  --- 4 DSR 48 [0 ffffffff 3 800] ------- [0:255 16:255 32 0] 2 [1 2] [0 2 0 0->16] [0 0 0 0->0]
s 15.080950570 _16_ RTR  --- 11 DSR 60 [0 0 0 0] ------- [16:255 0:255 254 21] 4 [0 2] [1 2 4 0->16] [0 0 0 0->0]
s 15.081938555 _16_ RTR  --- 10 DSR 68 [0 0 0 0] ------- [16:255 0:255 254 19] 5 [0 2] [1 2 5 0->16] [0 0 0 0->0]
r 15.082527538 _5_ RTR  --- 4 DSR 92 [0 ffffffff 8 800] ------- [0:255 16:255 32 0] 4 [1 2] [0 2 0 0->16] [0 0 0 0->0]
r 15.082527872 _2_ RTR  --- 4 DSR 92 [0 ffffffff 8 800] ------- [0:255 16:255 32 0] 4 [1 2] [0 2 0 0->16] [0 0 0 0->0]
r 15.082750872 _16_ RTR  --- 4 DSR 120 [0 ffffffff 12 800] ------- [0:255 16:255 32 0] 5 [1 2] [0 2 0 0->16] [0 0 0 0->0]
r 15.082750872 _20_ RTR  --- 4 DSR 120 [0 ffffffff 12 800] ------- [0:255 16:255 32 0] 5 [1 2] [0 2 0 0->16] [0 0 0 0->0]
r 15.082750872 _17_ RTR  --- 4 DSR 120 [0 ffffffff 12 800] ------- [0:255 16:255 32 0] 5 [1 2] [0 2 0 0->16] [0 0 0 0->0]
r 15.082751010 _13_ RTR  --- 4 DSR 120 [0 ffffffff 12 800] ------- [0:255 16:255 32 0] 5 [1 2] [0 2 0 0->16] [0 0 0 0->0]
r 15.082751205 _19_ RTR  --- 4 DSR 120 [0 ffffffff 12 800] ------- [0:255 16:255 32 0] 5 [1 2] [0 2 0 0->16] [0 0 0 0->0]
r 15.084601872 _12_ RTR  --- 4 DSR 120 [0 ffffffff f 800] ------- [0:255 16:255 32 0] 5 [1 2] [0 2 0 0->16] [0 0 0 0->0]
r 15.084601872 _19_ RTR  --- 4 DSR 120 [0 ffffffff f 800] ------- [0:255 16:255 32 0] 5 [1 2] [0 2 0 0->16] [0 0 0 0->0]
r 15.084602010 _21_ RTR  --- 4 DSR 120 [0 ffffffff f 800] ------- [0:255 16:255 32 0] 5 [1 2] [0 2 0 0->16] [0 0 0 0->0]
r 15.084602205 _9_ RTR  --- 4 DSR 120 [0 ffffffff f 800] ------- [0:255 16:255 32 0] 5 [1 2] [0 2 0 0->16] [0 0 0 0->0]
r 15.084602205 _16_ RTR  --- 4 DSR 120 [0 ffffffff f 800] ------- [0:255 16:255 32 0] 5 [1 2] [0 2 0 0->16] [0 0 0 0->0]
r 15.084602284 _13_ RTR  --- 4 DSR 120 [0 ffffffff f 800] ------- [0:255 16:255 32 0] 5 [1 2] [0 2 0 0->16] [0 0 0 0->0]
r 15.086246205 _10_ RTR  --- 7 DSR 60 [13a a 10 800] ------- [16:255 0:255 254 10] 4 [0 2] [1 2 4 0->16] [0 0 0 0->0]
f 15.086246205 _10_ RTR  --- 7 DSR 60 [13a a 10 800] ------- [16:255 0:255 253 6] 4 [0 2] [1 2 4 0->16] [0 0 0 0->0]
r 15.088127284 _11_ RTR  --- 4 DSR 120 [0 ffffffff e 800] ------- [0:255 16:255 32 0] 5 [1 2] [0 2 0 0->16] [0 0 0 0->0]
r 15.088127284 _20_ RTR  --- 4 DSR 120 [0 ffffffff e 800] ------- [0:255 16:255 32 0] 5 [1 2] [0 2 0 0->16] [0 0 0 0->0]
r 15.088127284 _17_ RTR  --- 4 DSR 120 [0 ffffffff e 800] ------- [0:255 16:255 32 0] 5 [1 2] [0 2 0 0->16] [0 0 0 0->0]
r 15.088127422 _22_ RTR  --- 4 DSR 120 [0 ffffffff e 800] ------- [0:255 16:255 32 0] 5 [1 2] [0 2 0 0->16] [0 0 0 0->0]
r 15.088127422 _18_ RTR  --- 4 DSR 120 [0 ffffffff e 800] ------- [0:255 16:255 32 0] 5 [1 2] [0 2 0 0->16] [0 0 0 0->0]
r 15.088127617 _8_ RTR  --- 4 DSR 120 [0 ffffffff e 800] ------- [0:255 16:255 32 0] 5 [1 2] [0 2 0 0->16] [0 0 0 0->0]
r 15.088127617 _13_ RTR  --- 4 DSR 120 [0 ffffffff e 800] ------- [0:255 16:255 32 0] 5 [1 2] [0 2 0 0->16] [0 0 0 0->0]
r 15.088127696 _16_ RTR  --- 4 DSR 120 [0 ffffffff e 800] ------- [0:255 16:255 32 0] 5 [1 2] [0 2 0 0->16] [0 0 0 0->0]
r 15.088127696 _10_ RTR  --- 4 DSR 120 [0 ffffffff e 800] ------- [0:255 16:255 32 0] 5 [1 2] [0 2 0 0->16] [0 0 0 0->0]
s 15.088405908 _16_ RTR  --- 12 DSR 76 [0 0 0 0] ------- [16:255 0:255 254 18] 6 [0 2] [1 2 6 0->16] [0 0 0 0->0]
r 15.091334696 _1_ RTR  --- 4 DSR 48 [0 ffffffff 4 800] ------- [0:255 16:255 32 0] 2 [1 2] [0 2 0 0->16] [0 0 0 0->0]
r 15.091334696 _7_ RTR  --- 4 DSR 48 [0 ffffffff 4 800] ------- [0:255 16:255 32 0] 2 [1 2] [0 2 0 0->16] [0 0 0 0->0]
r 15.091335029 _3_ RTR  --- 4 DSR 48 [0 ffffffff 4 800] ------- [0:255 16:255 32 0] 2 [1 2] [0 2 0 0->16] [0 0 0 0->0]
r 15.091335029 _10_ RTR  --- 4 DSR 48 [0 ffffffff 4 800] ------- [0:255 16:255 32 0] 2 [1 2] [0 2 0 0->16] [0 0 0 0->0]
r 15.091335029 _5_ RTR  --- 4 DSR 48 [0 ffffffff 4 800] ------- [0:255 16:255 32 0] 2 [1 2] [0 2 0 0->16] [0 0 0 0->0]
r 15.091335108 _6_ RTR  --- 4 DSR 48 [0 ffffffff 4 800] ------- [0:255 16:255 32 0] 2 [1 2] [0 2 0 0->16] [0 0 0 0->0]
r 15.091335108 _0_ RTR  --- 4 DSR 48 [0 ffffffff 4 800] ------- [0:255 16:255 32 0] 2 [1 2] [0 2 0 0->16] [0 0 0 0->0]
r 15.091335108 _22_ RTR  --- 4 DSR 48 [0 ffffffff 4 800] ------- [0:255 16:255 32 0] 2 [1 2] [0 2 0 0->16] [0 0 0 0->0]
r 15.091335108 _2_ RTR  --- 4 DSR 48 [0 ffffffff 4 800] ------- [0:255 16:255 32 0] 2 [1 2] [0 2 0 0->16] [0 0 0 0->0]
r 15.091335108 _8_ RTR  --- 4 DSR 48 [0 ffffffff 4 800] ------- [0:255 16:255 32 0] 2 [1 2] [0 2 0 0->16] [0 0 0 0->0]
r 15.093239265 _6_ RTR  --- 7 DSR 60 [13a 6 a 800] ------- [16:255 0:255 253 6] 4 [0 2] [1 2 4 0->16] [0 0 0 0->0]
f 15.093239265 _6_ RTR  --- 7 DSR 60 [13a 6 a 800] ------- [16:255 0:255 252 0] 4 [0 2] [1 2 4 0->16] [0 0 0 0->0]
s 15.093392758 _16_ RTR  --- 13 DSR 76 [0 0 0 0] ------- [16:255 0:255 254 15] 6 [0 2] [1 2 6 0->16] [0 0 0 0->0]
r 15.095277265 _0_ RTR  --- 7 DSR 60 [13a 0 6 800] ------- [16:255 0:255 252 0] 4 [0 2] [1 2 4 0->16] [0 0 0 0->0]
SFESTs 15.095277265 _0_ 0 [0 -> 16] 1(1) to 6 [0 |6 10 16 ]
SFESTs 15.095277265 _0_ 3 [0 -> 16] 1(1) to 6 [0 |6 10 16 ]
s 15.095277265 _0_ RTR  --- 0 cbr 556 [0 0 0 0] ------- [0:0 16:0 32 6] [0] 0 0
s 15.097969751 _16_ RTR  --- 14 DSR 76 [0 0 0 0] ------- [16:255 0:255 254 14] 6 [0 2] [1 2 6 0->16] [0 0 0 0->0]
r 15.101203265 _6_ RTR  --- 0 cbr 556 [13a 6 0 800] ------- [0:0 16:0 32 6] [0] 1 0
f 15.101203265 _6_ RTR  --- 0 cbr 556 [13a 6 0 800] ------- [0:0 16:0 31 10] [0] 1 0
r 15.107189501 _10_ RTR  --- 0 cbr 556 [13a a 6 800] ------- [0:0 16:0 31 10] [0] 2 0
f 15.107189501 _10_ RTR  --- 0 cbr 556 [13a a 6 800] ------- [0:0 16:0 30 16] [0] 2 0
r 15.113595501 _16_ RTR  --- 0 cbr 556 [13a 10 a 800] ------- [0:0 16:0 30 16] [0] 3 0
r 15.113595501 _16_ AGT  --- 0 cbr 512 [13a 10 a 800] ------- [0:0 16:0 30 16] [0] 3 0
s 15.114267120 _0_ AGT  --- 15 cbr 512 [0 0 0 0] ------- [0:0 16:0 32 0] [2] 0 0
r 15.114267120 _0_ RTR  --- 15 cbr 512 [0 0 0 0] ------- [0:0 16:0 32 0] [2] 0 0
SFESTs 15.114267120 _0_ 15 [0 -> 16] 1(1) to 6 [0 |6 10 16 ]
s 15.114267120 _0_ RTR  --- 15 cbr 556 [0 0 0 0] ------- [0:0 16:0 32 6] [2] 0 0
r 15.116256501 _19_ RTR  --- 10 DSR 68 [13a 13 10 800] ------- [16:255 0:255 254 19] 5 [0 2] [1 2 5 0->16] [0 0 0 0->0]
f 15.116256501 _19_ RTR  --- 10 DSR 68 [13a 13 10 800] ------- [16:255 0:255 253 10] 5 [0 2] [1 2 5 0->16] [0 0 0 0->0]
r 15.123210630 _6_ RTR  --- 15 cbr 556 [13a 6 0 800] ------- [0:0 16:0 32 6] [2] 1 0
f 15.123210630 _6_ RTR  --- 15 cbr 556 [13a 6 0 800] ------- [0:0 16:0 31 10] [2] 1 0
s 15.125277265 _0_ RTR  --- 3 cbr 556 [0 0 0 0] ------- [0:0 16:0 32 6] [1] 0 0
r 15.125662068 _14_ RTR  --- 14 DSR 76 [13a e 10 800] ------- [16:255 0:255 254 14] 6 [0 2] [1 2 6 0->16] [0 0 0 0->0]
f 15.125662068 _14_ RTR  --- 14 DSR 76 [13a e 10 800] ------- [16:255 0:255 253 11] 6 [0 2] [1 2 6 0->16] [0 0 0 0->0]
r 15.128954813 _15_ RTR  --- 13 DSR 76 [13a f 10 800] ------- [16:255 0:255 254 15] 6 [0 2] [1 2 6 0->16] [0 0 0 0->0]
f 15.128954813 _15_ RTR  --- 13 DSR 76 [13a f 10 800] ------- [16:255 0:255 253 13] 6 [0 2] [1 2 6 0->16] [0 0 0 0->0]
r 15.131361049 _13_ RTR  --- 13 DSR 76 [13a d f 800] ------- [16:255 0:255 253 13] 6 [0 2] [1 2 6 0->16] [0 0 0 0->0]
f 15.131361049 _13_ RTR  --- 13 DSR 76 [13a d f 800] ------- [16:255 0:255 252 7] 6 [0 2] [1 2 6 0->16] [0 0 0 0->0]
r 15.133526382 _18_ RTR  --- 12 DSR 76 [13a 12 10 800] ------- [16:255 0:255 254 18] 6 [0 2] [1 2 6 0->16] [0 0 0 0->0]
f 15.133526382 _18_ RTR  --- 12 DSR 76 [13a 12 10 800] ------- [16:255 0:255 253 11] 6 [0 2] [1 2 6 0->16] [0 0 0 0->0]
r 15.135772854 _7_ RTR  --- 13 DSR 76 [13a 7 d 800] ------- [16:255 0:255 252 7] 6 [0 2] [1 2 6 0->16] [0 0 0 0->0]
f 15.135772854 _7_ RTR  --- 13 DSR 76 [13a 7 d 800] ------- [16:255 0:255 251 1] 6 [0 2] [1 2 6 0->16] [0 0 0 0->0]
r 15.137958854 _1_ RTR  --- 13 DSR 76 [13a 1 7 800] ------- [16:255 0:255 251 1] 6 [0 2] [1 2 6 0->16] [0 0 0 0->0]
f 15.137958854 _1_ RTR  --- 13 DSR 76 [13a 1 7 800] ------- [16:255 0:255 250 0] 6 [0 2] [1 2 6 0->16] [0 0 0 0->0]
r 15.144155130 _6_ RTR  --- 3 cbr 556 [13a 6 0 800] ------- [0:0 16:0 32 6] [1] 1 0
f 15.144155130 _6_ RTR  --- 3 cbr 556 [13a 6 0 800] ------- [0:0 16:0 31 10] [1] 1 0
r 15.150181366 _10_ RTR  --- 15 cbr 556 [13a a 6 800] ------- [0:0 16:0 31 10] [2] 2 0
f 15.150181366 _10_ RTR  --- 15 cbr 556 [13a a 6 800] ------- [0:0 16:0 30 16] [2] 2 0
r 15.152318271 _11_ RTR  --- 12 DSR 76 [13a b 12 800] ------- [16:255 0:255 253 11] 6 [0 2] [1 2 6 0->16] [0 0 0 0->0]
f 15.152318271 _11_ RTR  --- 12 DSR 76 [13a b 12 800] ------- [16:255 0:255 252 7] 6 [0 2] [1 2 6 0->16] [0 0 0 0->0]
r 15.158364937 _16_ RTR  --- 15 cbr 556 [13a 10 a 800] ------- [0:0 16:0 30 16] [2] 3 0
r 15.158364937 _16_ AGT  --- 15 cbr 512 [13a 10 a 800] ------- [0:0 16:0 30 16] [2] 3 0
s 15.159055050 _0_ AGT  --- 16 cbr 512 [0 0 0 0] ------- [0:0 16:0 32 0] [3] 0 0
r 15.159055050 _0_ RTR  --- 16 cbr 512 [0 0 0 0] ------- [0:0 16:0 32 0] [3] 0 0
SFs 15.159055050 _0_ 16 [0 -> 16] 1(0) to 6 
s 15.159055050 _0_ RTR  --- 16 cbr 532 [0 0 0 0] ------- [0:0 16:0 32 6] [3] 0 0
r 15.160322352 _21_ RTR  --- 11 DSR 60 [13a 15 10 800] ------- [16:255 0:255 254 21] 4 [0 2] [1 2 4 0->16] [0 0 0 0->0]
f 15.160322352 _21_ RTR  --- 11 DSR 60 [13a 15 10 800] ------- [16:255 0:255 253 6] 4 [0 2] [1 2 4 0->16] [0 0 0 0->0]
r 15.162424921 _10_ RTR  --- 10 DSR 68 [13a a 13 800] ------- [16:255 0:255 253 10] 5 [0 2] [1 2 5 0->16] [0 0 0 0->0]
f 15.162424921 _10_ RTR  --- 10 DSR 68 [13a a 13 800] ------- [16:255 0:255 252 6] 5 [0 2] [1 2 5 0->16] [0 0 0 0->0]
r 15.168401466 _10_ RTR  --- 3 cbr 556 [13a a 6 800] ------- [0:0 16:0 31 10] [1] 2 0
f 15.168401466 _10_ RTR  --- 3 cbr 556 [13a a 6 800] ------- [0:0 16:0 30 16] [1] 2 0
r 15.170610158 _12_ RTR  --- 9 DSR 60 [13a c 10 800] ------- [16:255 0:255 254 12] 4 [0 2] [1 2 4 0->16] [0 0 0 0->0]
f 15.170610158 _12_ RTR  --- 9 DSR 60 [13a c 10 800] ------- [16:255 0:255 253 6] 4 [0 2] [1 2 4 0->16] [0 0 0 0->0]
r 15.172633140 _6_ RTR  --- 10 DSR 68 [13a 6 a 800] ------- [16:255 0:255 252 6] 5 [0 2] [1 2 5 0->16] [0 0 0 0->0]
f 15.172633140 _6_ RTR  --- 10 DSR 68 [13a 6 a 800] ------- [16:255 0:255 251 0] 5 [0 2] [1 2 5 0->16] [0 0 0 0->0]
r 15.174592121 _6_ RTR  --- 11 DSR 60 [13a 6 15 800] ------- [16:255 0:255 253 6] 4 [0 2] [1 2 4 0->16] [0 0 0 0->0]
f 15.174592121 _6_ RTR  --- 11 DSR 60 [13a 6 15 800] ------- [16:255 0:255 252 0] 4 [0 2] [1 2 4 0->16] [0 0 0 0->0]
r 15.176634121 _0_ RTR  --- 10 DSR 68 [13a 0 6 800] ------- [16:255 0:255 251 0] 5 [0 2] [1 2 5 0->16] [0 0 0 0->0]
r 15.178770397 _0_ RTR  --- 13 DSR 76 [13a 0 1 800] ------- [16:255 0:255 250 0] 6 [0 2] [1 2 6 0->16] [0 0 0 0->0]
r 15.180958674 _0_ RTR  --- 11 DSR 60 [13a 0 6 800] ------- [16:255 0:255 252 0] 4 [0 2] [1 2 4 0->16] [0 0 0 0->0]
r 15.186692674 _6_ RTR  --- 16 cbr 532 [13a 6 0 800] ------- [0:0 16:0 32 6] [3] 1 0
SFf 15.186692674 _6_ 16 [0 -> 16] 1 to 10
f 15.186692674 _6_ RTR  --- 16 cbr 532 [13a 6 0 800] ------- [0:0 16:0 31 10] [3] 1 0
r 15.188761340 _6_ RTR  --- 9 DSR 60 [13a 6 c 800] ------- [16:255 0:255 253 6] 4 [0 2] [1 2 4 0->16] [0 0 0 0->0]
f 15.188761340 _6_ RTR  --- 9 DSR 60 [13a 6 c 800] ------- [16:255 0:255 252 0] 4 [0 2] [1 2 4 0->16] [0 0 0 0->0]
r 15.194795576 _10_ RTR  --- 16 cbr 532 [13a a 6 800] ------- [0:0 16:0 31 10] [3] 2 0
SFf 15.194795576 _10_ 16 [0 -> 16] 1 to 16
f 15.194795576 _10_ RTR  --- 16 cbr 532 [13a a 6 800] ------- [0:0 16:0 30 16] [3] 2 0
r 15.200741576 _16_ RTR  --- 3 cbr 556 [13a 10 a 800] ------- [0:0 16:0 30 16] [1] 3 0
r 15.200741576 _16_ AGT  --- 3 cbr 512 [13a 10 a 800] ------- [0:0 16:0 30 16] [1] 3 0
s 15.202245547 _0_ AGT  --- 17 cbr 512 [0 0 0 0] ------- [0:0 16:0 32 0] [4] 0 0
r 15.202245547 _0_ RTR  --- 17 cbr 512 [0 0 0 0] ------- [0:0 16:0 32 0] [4] 0 0
SFs 15.202245547 _0_ 17 [0 -> 16] 1(0) to 6 