n -t * -s 0  -x 100 -y 0 -Z 0 -z 30  -v circle -c black
n -t * -s 1  -x 300 -y 0 -Z 0 -z 30  -v circle -c black
n -t * -s 2  -x 500 -y 0 -Z 0 -z 30  -v circle -c black
n -t * -s 3  -x 100 -y 100 -Z 0 -z 30  -v circle -c black
n -t * -s 4  -x 300 -y 100 -Z 0 -z 30  -v circle -c black
n -t * -s 5  -x 500 -y 100 -Z 0 -z 30  -v circle -c black
n -t * -s 6  -x 100 -y 200 -Z 0 -z 30  -v circle -c black
n -t * -s 7  -x 300 -y 200 -Z 0 -z 30  -v circle -c black
n -t * -s 8  -x 500 -y 200 -Z 0 -z 30  -v circle -c black
n -t * -s 9  -x 100 -y 300 -Z 0 -z 30  -v circle -c black
n -t * -s 10  -x 300 -y 300 -Z 0 -z 30  -v circle -c black
n -t * -s 11  -x 500 -y 300 -Z 0 -z 30  -v circle -c black
n -t * -s 12  -x 100 -y 400 -Z 0 -z 30  -v circle -c black
n -t * -s 13  -x 300 -y 400 -Z 0 -z 30  -v circle -c black
n -t * -s 14  -x 500 -y 400 -Z 0 -z 30  -v circle -c black
n -t * -s 15  -x 100 -y 500 -Z 0 -z 30  -v circle -c black
n -t * -s 16  -x 300 -y 500 -Z 0 -z 30  -v circle -c black
n -t * -s 17  -x 500 -y 500 -Z 0 -z 30  -v circle -c black
n -t * -s 18  -x 400 -y 500 -Z 0 -z 30  -v circle -c black
n -t * -s 19  -x 200 -y 500 -Z 0 -z 30  -v circle -c black
n -t * -s 20  -x 400 -y 400 -Z 0 -z 30  -v circle -c black
n -t * -s 21  -x 200 -y 400 -Z 0 -z 30  -v circle -c black
n -t * -s 22  -x 400 -y 300 -Z 0 -z 30  -v circle -c black
V -t * -v 1.0a5 -a 0
W -t * -x 500 -y 500
A -t * -n 1 -p 0 -o 0xffffffff -c 31 -a 1
A -t * -h 1 -m 2147483647 -s 0
+ -t 15.000000000 -s 0 -d -1 -p cbr -e 512 -c 2 -a 0 -i 0 -k AGT 
- -t 15.000000000 -s 0 -d -1 -p cbr -e 512 -c 2 -a 0 -i 0 -k AGT
h -t 15.000000000 -s 0 -d -1 -p cbr -e 512 -c 2 -a 0 -i 0 -k AGT
+ -t 15.001315927 -s 0 -d -1 -p DSR -e 32 -c 2 -a 0 -i 1 -k RTR 
- -t 15.001315927 -s 0 -d -1 -p DSR -e 32 -c 2 -a 0 -i 1 -k RTR
h -t 15.001315927 -s 0 -d -1 -p DSR -e 32 -c 2 -a 0 -i 1 -k RTR
+ -t 15.052265909 -s 0 -d -1 -p cbr -e 512 -c 2 -a 0 -i 3 -k AGT 
- -t 15.052265909 -s 0 -d -1 -p cbr -e 512 -c 2 -a 0 -i 3 -k AGT
h -t 15.052265909 -s 0 -d -1 -p cbr -e 512 -c 2 -a 0 -i 3 -k AGT
+ -t 15.061845158 -s 0 -d -1 -p DSR -e 32 -c 2 -a 0 -i 4 -k RTR 
- -t 15.061845158 -s 0 -d -1 -p DSR -e 32 -c 2 -a 0 -i 4 -k RTR
h -t 15.061845158 -s 0 -d -1 -p DSR -e 32 -c 2 -a 0 -i 4 -k RTR
+ -t 15.063401815 -s 1 -d -1 -p DSR -e 48 -c 2 -a 0 -i 4 -k RTR 
- -t 15.063401815 -s 1 -d -1 -p DSR -e 48 -c 2 -a 0 -i 4 -k RTR
h -t 15.063401815 -s 1 -d -1 -p DSR -e 48 -c 2 -a 0 -i 4 -k RTR
+ -t 15.064117387 -s 6 -d -1 -p DSR -e 48 -c 2 -a 0 -i 4 -k RTR 
- -t 15.064117387 -s 6 -d -1 -p DSR -e 48 -c 2 -a 0 -i 4 -k RTR
h -t 15.064117387 -s 6 -d -1 -p DSR -e 48 -c 2 -a 0 -i 4 -k RTR
+ -t 15.065462614 -s 2 -d -1 -p DSR -e 68 -c 2 -a 0 -i 4 -k RTR 
- -t 15.065462614 -s 2 -d -1 -p DSR -e 68 -c 2 -a 0 -i 4 -k RTR
h -t 15.065462614 -s 2 -d -1 -p DSR -e 68 -c 2 -a 0 -i 4 -k RTR
+ -t 15.066046381 -s 7 -d -1 -p DSR -e 68 -c 2 -a 0 -i 4 -k RTR 
- -t 15.066046381 -s 7 -d -1 -p DSR -e 68 -c 2 -a 0 -i 4 -k RTR
h -t 15.066046381 -s 7 -d -1 -p DSR -e 68 -c 2 -a 0 -i 4 -k RTR
+ -t 15.067843455 -s 11 -d -1 -p DSR -e 92 -c 2 -a 0 -i 4 -k RTR 
- -t 15.067843455 -s 11 -d -1 -p DSR -e 92 -c 2 -a 0 -i 4 -k RTR
h -t 15.067843455 -s 11 -d -1 -p DSR -e 92 -c 2 -a 0 -i 4 -k RTR
+ -t 15.068345071 -s 13 -d -1 -p DSR -e 92 -c 2 -a 0 -i 4 -k RTR 
- -t 15.068345071 -s 13 -d -1 -p DSR -e 92 -c 2 -a 0 -i 4 -k RTR
h -t 15.068345071 -s 13 -d -1 -p DSR -e 92 -c 2 -a 0 -i 4 -k RTR
+ -t 15.069242857 -s 5 -d -1 -p DSR -e 68 -c 2 -a 0 -i 4 -k RTR 
- -t 15.069242857 -s 5 -d -1 -p DSR -e 68 -c 2 -a 0 -i 4 -k RTR
h -t 15.069242857 -s 5 -d -1 -p DSR -e 68 -c 2 -a 0 -i 4 -k RTR
+ -t 15.069262576 -s 10 -d -1 -p DSR -e 68 -c 2 -a 0 -i 4 -k RTR 
- -t 15.069262576 -s 10 -d -1 -p DSR -e 68 -c 2 -a 0 -i 4 -k RTR
h -t 15.069262576 -s 10 -d -1 -p DSR -e 68 -c 2 -a 0 -i 4 -k RTR
+ -t 15.069551759 -s 18 -d -1 -p DSR -e 120 -c 2 -a 0 -i 4 -k RTR 
- -t 15.069551759 -s 18 -d -1 -p DSR -e 120 -c 2 -a 0 -i 4 -k RTR
h -t 15.069551759 -s 18 -d -1 -p DSR -e 120 -c 2 -a 0 -i 4 -k RTR
+ -t 15.069886911 -s 4 -d -1 -p DSR -e 48 -c 2 -a 0 -i 4 -k RTR 
- -t 15.069886911 -s 4 -d -1 -p DSR -e 48 -c 2 -a 0 -i 4 -k RTR
h -t 15.069886911 -s 4 -d -1 -p DSR -e 48 -c 2 -a 0 -i 4 -k RTR
+ -t 15.070153231 -s 12 -d -1 -p DSR -e 68 -c 2 -a 0 -i 4 -k RTR 
- -t 15.070153231 -s 12 -d -1 -p DSR -e 68 -c 2 -a 0 -i 4 -k RTR
h -t 15.070153231 -s 12 -d -1 -p DSR -e 68 -c 2 -a 0 -i 4 -k RTR
+ -t 15.071554361 -s 22 -d -1 -p DSR -e 92 -c 2 -a 0 -i 4 -k RTR 
- -t 15.071554361 -s 22 -d -1 -p DSR -e 92 -c 2 -a 0 -i 4 -k RTR
h -t 15.071554361 -s 22 -d -1 -p DSR -e 92 -c 2 -a 0 -i 4 -k RTR
+ -t 15.071780918 -s 3 -d -1 -p DSR -e 48 -c 2 -a 0 -i 4 -k RTR 
- -t 15.071780918 -s 3 -d -1 -p DSR -e 48 -c 2 -a 0 -i 4 -k RTR
h -t 15.071780918 -s 3 -d -1 -p DSR -e 48 -c 2 -a 0 -i 4 -k RTR
+ -t 15.072894001 -s 20 -d -1 -p DSR -e 92 -c 2 -a 0 -i 4 -k RTR 
- -t 15.072894001 -s 20 -d -1 -p DSR -e 92 -c 2 -a 0 -i 4 -k RTR
h -t 15.072894001 -s 20 -d -1 -p DSR -e 92 -c 2 -a 0 -i 4 -k RTR
+ -t 15.073193793 -s 8 -d -1 -p DSR -e 92 -c 2 -a 0 -i 4 -k RTR 
- -t 15.073193793 -s 8 -d -1 -p DSR -e 92 -c 2 -a 0 -i 4 -k RTR
h -t 15.073193793 -s 8 -d -1 -p DSR -e 92 -c 2 -a 0 -i 4 -k RTR
+ -t 15.073227764 -s 14 -d -1 -p DSR -e 120 -c 2 -a 0 -i 4 -k RTR 
- -t 15.073227764 -s 14 -d -1 -p DSR -e 120 -c 2 -a 0 -i 4 -k RTR
h -t 15.073227764 -s 14 -d -1 -p DSR -e 120 -c 2 -a 0 -i 4 -k RTR
+ -t 15.073266816 -s 9 -d -1 -p DSR -e 68 -c 2 -a 0 -i 4 -k RTR 
- -t 15.073266816 -s 9 -d -1 -p DSR -e 68 -c 2 -a 0 -i 4 -k RTR
h -t 15.073266816 -s 9 -d -1 -p DSR -e 68 -c 2 -a 0 -i 4 -k RTR
+ -t 15.073486847 -s 19 -d -1 -p DSR -e 92 -c 2 -a 0 -i 4 -k RTR 
- -t 15.073486847 -s 19 -d -1 -p DSR -e 92 -c 2 -a 0 -i 4 -k RTR
h -t 15.073486847 -s 19 -d -1 -p DSR -e 92 -c 2 -a 0 -i 4 -k RTR
+ -t 15.073606968 -s 21 -d -1 -p DSR -e 68 -c 2 -a 0 -i 4 -k RTR 
- -t 15.073606968 -s 21 -d -1 -p DSR -e 68 -c 2 -a 0 -i 4 -k RTR
h -t 15.073606968 -s 21 -d -1 -p DSR -e 68 -c 2 -a 0 -i 4 -k RTR
+ -t 15.075671201 -s 16 -d 10 -p DSR -e 60 -c 2 -a 0 -i 7 -k RTR 
- -t 15.075671201 -s 16 -d 10 -p DSR -e 60 -c 2 -a 0 -i 7 -k RTR
h -t 15.075671201 -s 16 -d 10 -p DSR -e 60 -c 2 -a 0 -i 7 -k RTR
+ -t 15.076067554 -s 16 -d 13 -p DSR -e 68 -c 2 -a 0 -i 8 -k RTR 
- -t 15.076067554 -s 16 -d 13 -p DSR -e 68 -c 2 -a 0 -i 8 -k RTR
h -t 15.076067554 -s 16 -d 13 -p DSR -e 68 -c 2 -a 0 -i 8 -k RTR
+ -t 15.077344613 -s 17 -d -1 -p DSR -e 120 -c 2 -a 0 -i 4 -k RTR 
- -t 15.077344613 -s 17 -d -1 -p DSR -e 120 -c 2 -a 0 -i 4 -k RTR
h -t 15.077344613 -s 17 -d -1 -p DSR -e 120 -c 2 -a 0 -i 4 -k RTR
+ -t 15.077983026 -s 15 -d -1 -p DSR -e 120 -c 2 -a 0 -i 4 -k RTR 
- -t 15.077983026 -s 15 -d -1 -p DSR -e 120 -c 2 -a 0 -i 4 -k RTR
h -t 15.077983026 -s 15 -d -1 -p DSR -e 120 -c 2 -a 0 -i 4 -k RTR
+ -t 15.079502796 -s 16 -d 12 -p DSR -e 60 -c 2 -a 0 -i 9 -k RTR 
- -t 15.079502796 -s 16 -d 12 -p DSR -e 60 -c 2 -a 0 -i 9 -k RTR
h -t 15.079502796 -s 16 -d 12 -p DSR -e 60 -c 2 -a 0 -i 9 -k RTR
+ -t 15.080950570 -s 16 -d 21 -p DSR -e 60 -c 2 -a 0 -i 11 -k RTR 
- -t 15.080950570 -s 16 -d 21 -p DSR -e 60 -c 2 -a 0 -i 11 -k RTR
h -t 15.080950570 -s 16 -d 21 -p DSR -e 60 -c 2 -a 0 -i 11 -k RTR
+ -t 15.081938555 -s 16 -d 19 -p DSR -e 68 -c 2 -a 0 -i 10 -k RTR 
- -t 15.081938555 -s 16 -d 19 -p DSR -e 68 -c 2 -a 0 -i 10 -k RTR
h -t 15.081938555 -s 16 -d 19 -p DSR -e 68 -c 2 -a 0 -i 10 -k RTR
+ -t 15.086246205 -s 10 -d 6 -p DSR -e 60 -c 2 -a 0 -i 7 -k RTR 
- -t 15.086246205 -s 10 -d 6 -p DSR -e 60 -c 2 -a 0 -i 7 -k RTR
h -t 15.086246205 -s 10 -d 6 -p DSR -e 60 -c 2 -a 0 -i 7 -k RTR
+ -t 15.088405908 -s 16 -d 18 -p DSR -e 76 -c 2 -a 0 -i 12 -k RTR 
- -t 15.088405908 -s 16 -d 18 -p DSR -e 76 -c 2 -a 0 -i 12 -k RTR
h -t 15.088405908 -s 16 -d 18 -p DSR -e 76 -c 2 -a 0 -i 12 -k RTR
+ -t 15.093239265 -s 6 -d 0 -p DSR -e 60 -c 2 -a 0 -i 7 -k RTR 
- -t 15.093239265 -s 6 -d 0 -p DSR -e 60 -c 2 -a 0 -i 7 -k RTR
h -t 15.093239265 -s 6 -d 0 -p DSR -e 60 -c 2 -a 0 -i 7 -k RTR
+ -t 15.093392758 -s 16 -d 15 -p DSR -e 76 -c 2 -a 0 -i 13 -k RTR 
- -t 15.093392758 -s 16 -d 15 -p DSR -e 76 -c 2 -a 0 -i 13 -k RTR
h -t 15.093392758 -s 16 -d 15 -p DSR -e 76 -c 2 -a 0 -i 13 -k RTR
+ -t 15.095277265 -s 0 -d 6 -p cbr -e 556 -c 2 -a 0 -i 0 -k RTR 
- -t 15.095277265 -s 0 -d 6 -p cbr -e 556 -c 2 -a 0 -i 0 -k RTR
h -t 15.095277265 -s 0 -d 6 -p cbr -e 556 -c 2 -a 0 -i 0 -k RTR
+ -t 15.097969751 -s 16 -d 14 -p DSR -e 76 -c 2 -a 0 -i 14 -k RTR 
- -t 15.097969751 -s 16 -d 14 -p DSR -e 76 -c 2 -a 0 -i 14 -k RTR
h -t 15.097969751 -s 16 -d 14 -p DSR -e 76 -c 2 -a 0 -i 14 -k RTR
+ -t 15.101203265 -s 6 -d 10 -p cbr -e 556 -c 2 -a 0 -i 0 -k RTR 
- -t 15.101203265 -s 6 -d 10 -p cbr -e 556 -c 2 -a 0 -i 0 -k RTR
h -t 15.101203265 -s 6 -d 10 -p cbr -e 556 -c 2 -a 0 -i 0 -k RTR
+ -t 15.107189501 -s 10 -d 16 -p cbr -e 556 -c 2 -a 0 -i 0 -k RTR 
- -t 15.107189501 -s 10 -d 16 -p cbr -e 556 -c 2 -a 0 -i 0 -k RTR
h -t 15.107189501 -s 10 -d 16 -p cbr -e 556 -c 2 -a 0 -i 0 -k RTR
r -t 15.113595501 -s 16 -d 16 -p cbr -e 512 -c 2 -a 0 -i 0 -k AGT
+ -t 15.114267120 -s 0 -d -1 -p cbr -e 512 -c 2 -a 0 -i 15 -k AGT 
- -t 15.114267120 -s 0 -d -1 -p cbr -e 512 -c 2 -a 0 -i 15 -k AGT
h -t 15.114267120 -s 0 -d -1 -p cbr -e 512 -c 2 -a 0 -i 15 -k AGT
+ -t 15.114267120 -s 0 -d 6 -p cbr -e 556 -c 2 -a 0 -i 15 -k RTR 
- -t 15.114267120 -s 0 -d 6 -p cbr -e 556 -c 2 -a 0 -i 15 -k RTR
h -t 15.114267120 -s 0 -d 6 -p cbr -e 556 -c 2 -a 0 -i 15 -k RTR
+ -t 15.116256501 -s 19 -d 10 -p DSR -e 68 -c 2 -a 0 -i 10 -k RTR 
- -t 15.116256501 -s 19 -d 10 -p DSR -e 68 -c 2 -a 0 -i 10 -k RTR
h -t 15.116256501 -s 19 -d 10 -p DSR -e 68 -c 2 -a 0 -i 10 -k RTR
+ -t 15.123210630 -s 6 -d 10 -p cbr -e 556 -c 2 -a 0 -i 15 -k RTR 
- -t 15.123210630 -s 6 -d 10 -p cbr -e 556 -c 2 -a 0 -i 15 -k RTR
h -t 15.123210630 -s 6 -d 10 -p cbr -e 556 -c 2 -a 0 -i 15 -k RTR
+ -t 15.125277265 -s 0 -d 6 -p cbr -e 556 -c 2 -a 0 -i 3 -k RTR 
- -t 15.125277265 -s 0 -d 6 -p cbr -e 556 -c 2 -a 0 -i 3 -k RTR
h -t 15.125277265 -s 0 -d 6 -p cbr -e 556 -c 2 -a 0 -i 3 -k RTR
+ -t 15.125662068 -s 14 -d 11 -p DSR -e 76 -c 2 -a 0 -i 14 -k RTR 
- -t 15.125662068 -s 14 -d 11 -p DSR -e 76 -c 2 -a 0 -i 14 -k RTR
h -t 15.125662068 -s 14 -d 11 -p DSR -e 76 -c 2 -a 0 -i 14 -k RTR
+ -t 15.128954813 -s 15 -d 13 -p DSR -e 76 -c 2 -a 0 -i 13 -k RTR 
- -t 15.128954813 -s 15 -d 13 -p DSR -e 76 -c 2 -a 0 -i 13 -k RTR
h -t 15.128954813 -s 15 -d 13 -p DSR -e 76 -c 2 -a 0 -i 13 -k RTR
+ -t 15.131361049 -s 13 -d 7 -p DSR -e 76 -c 2 -a 0 -i 13 -k RTR 
- -t 15.131361049 -s 13 -d 7 -p DSR -e 76 -c 2 -a 0 -i 13 -k RTR
h -t 15.131361049 -s 13 -d 7 -p DSR -e 76 -c 2 -a 0 -i 13 -k RTR
+ -t 15.133526382 -s 18 -d 11 -p DSR -e 76 -c 2 -a 0 -i 12 -k RTR 
- -t 15.133526382 -s 18 -d 11 -p DSR -e 76 -c 2 -a 0 -i 12 -k RTR
h -t 15.133526382 -s 18 -d 11 -p DSR -e 76 -c 2 -a 0 -i 12 -k RTR
+ -t 15.135772854 -s 7 -d 1 -p DSR -e 76 -c 2 -a 0 -i 13 -k RTR 
- -t 15.135772854 -s 7 -d 1 -p DSR -e 76 -c 2 -a 0 -i 13 -k RTR
h -t 15.135772854 -s 7 -d 1 -p DSR -e 76 -c 2 -a 0 -i 13 -k RTR
+ -t 15.137958854 -s 1 -d 0 -p DSR -e 76 -c 2 -a 0 -i 13 -k RTR 
- -t 15.137958854 -s 1 -d 0 -p DSR -e 76 -c 2 -a 0 -i 13 -k RTR
h -t 15.137958854 -s 1 -d 0 -p DSR -e 76 -c 2 -a 0 -i 13 -k RTR
+ -t 15.144155130 -s 6 -d 10 -p cbr -e 556 -c 2 -a 0 -i 3 -k RTR 
- -t 15.144155130 -s 6 -d 10 -p cbr -e 556 -c 2 -a 0 -i 3 -k RTR
h -t 15.144155130 -s 6 -d 10 -p cbr -e 556 -c 2 -a 0 -i 3 -k RTR
+ -t 15.150181366 -s 10 -d 16 -p cbr -e 556 -c 2 -a 0 -i 15 -k RTR 
- -t 15.150181366 -s 10 -d 16 -p cbr -e 556 -c 2 -a 0 -i 15 -k RTR
h -t 15.150181366 -s 10 -d 16 -p cbr -e 556 -c 2 -a 0 -i 15 -k RTR
+ -t 15.152318271 -s 11 -d 7 -p DSR -e 76 -c 2 -a 0 -i 12 -k RTR 
- -t 15.152318271 -s 11 -d 7 -p DSR -e 76 -c 2 -a 0 -i 12 -k RTR
h -t 15.152318271 -s 11 -d 7 -p DSR -e 76 -c 2 -a 0 -i 12 -k RTR
r -t 15.158364937 -s 16 -d 16 -p cbr -e 512 -c 2 -a 0 -i 15 -k AGT
+ -t 15.159055050 -s 0 -d -1 -p cbr -e 512 -c 2 -a 0 -i 16 -k AGT 
- -t 15.159055050 -s 0 -d -1 -p cbr -e 512 -c 2 -a 0 -i 16 -k AGT
h -t 15.159055050 -s 0 -d -1 -p cbr -e 512 -c 2 -a 0 -i 16 -k AGT
+ -t 15.159055050 -s 0 -d 6 -p cbr -e 532 -c 2 -a 0 -i 16 -k RTR 
- -t 15.159055050 -s 0 -d 6 -p cbr -e 532 -c 2 -a 0 -i 16 -k RTR
h -t 15.159055050 -s 0 -d 6 -p cbr -e 532 -c 2 -a 0 -i 16 -k RTR
+ -t 15.160322352 -s 21 -d 6 -p DSR -e 60 -c 2 -a 0 -i 11 -k RTR 
- -t 15.160322352 -s 21 -d 6 -p DSR -e 60 -c 2 -a 0 -i 11 -k RTR
h -t 15.160322352 -s 21 -d 6 -p DSR -e 60 -c 2 -a 0 -i 11 -k RTR
+ -t 15.162424921 -s 10 -d 6 -p DSR -e 68 -c 2 -a 0 -i 10 -k RTR 
- -t 15.162424921 -s 10 -d 6 -p DSR -e 68 -c 2 -a 0 -i 10 -k RTR
h -t 15.162424921 -s 10 -d 6 -p DSR -e 68 -c 2 -a 0 -i 10 -k RTR
+ -t 15.168401466 -s 10 -d 16 -p cbr -e 556 -c 2 -a 0 -i 3 -k RTR 
- -t 15.168401466 -s 10 -d 16 -p cbr -e 556 -c 2 -a 0 -i 3 -k RTR
h -t 15.168401466 -s 10 -d 16 -p cbr -e 556 -c 2 -a 0 -i 3 -k RTR
+ -t 15.170610158 -s 12 -d 6 -p DSR -e 60 -c 2 -a 0 -i 9 -k RTR 
- -t 15.170610158 -s 12 -d 6 -p DSR -e 60 -c 2 -a 0 -i 9 -k RTR
h -t 15.170610158 -s 12 -d 6 -p DSR -e 60 -c 2 -a 0 -i 9 -k RTR
+ -t 15.172633140 -s 6 -d 0 -p DSR -e 68 -c 2 -a 0 -i 10 -k RTR 
- -t 15.172633140 -s 6 -d 0 -p DSR -e 68 -c 2 -a 0 -i 10 -k RTR
h -t 15.172633140 -s 6 -d 0 -p DSR -e 68 -c 2 -a 0 -i 10 -k RTR
+ -t 15.174592121 -s 6 -d 0 -p DSR -e 60 -c 2 -a 0 -i 11 -k RTR 
- -t 15.174592121 -s 6 -d 0 -p DSR -e 60 -c 2 -a 0 -i 11 -k RTR
h -t 15.174592121 -s 6 -d 0 -p DSR -e 60 -c 2 -a 0 -i 11 -k RTR
+ -t 15.186692674 -s 6 -d 10 -p cbr -e 532 -c 2 -a 0 -i 16 -k RTR 
- -t 15.186692674 -s 6 -d 10 -p cbr -e 532 -c 2 -a 0 -i 16 -k RTR
h -t 15.186692674 -s 6 -d 10 -p cbr -e 532 -c 2 -a 0 -i 16 -k RTR
+ -t 15.188761340 -s 6 -d 0 -p DSR -e 60 -c 2 -a 0 -i 9 -k RTR 
- -t 15.188761340 -s 6 -d 0 -p DSR -e 60 -c 2 -a 0 -i 9 -k RTR
h -t 15.188761340 -s 6 -d 0 -p DSR -e 60 -c 2 -a 0 -i 9 -k RTR
+ -t 15.194795576 -s 10 -d 16 -p cbr -e 532 -c 2 -a 0 -i 16 -k RTR 
- -t 15.194795576 -s 10 -d 16 -p cbr -e 532 -c 2 -a 0 -i 16 -k RTR
h -t 15.194795576 -s 10 -d 16 -p cbr -e 532 -c 2 -a 0 -i 16 -k RTR
r -t 15.200741576 -s 16 -d 16 -p cbr -e 512 -c 2 -a 0 -i 3 -k AGT
+ -t 15.202245547 -s 0 -d -1 -p cbr -e 512 -c 2 -a 0 -i 17 -k AGT 
- -t 15.202245547 -s 0 -d -1 -p cbr -e 512 -c 2 -a 0 -i 17 -k AGT
h -t 15.202245547 -s 0 -d -1 -p cbr -e 512 -c 2 -a 0 -i 17 -k AGT
+ -t 15.202245547 -s 0 -d 6 -p cbr -e 532 -c 2 -a 0 -i 17 -k RTR 
- -t 15.202245547 -s 0 -d 6 -p cbr -e 532 -c 2 -a 0 -i 17 -k RTR
h -t 15.202245547 -s 0 -d 6 -p cbr -e 532 -c 2 -a 0 -i 17 -k RTR
+ -t 15.203022576 -s 13 -d 7 -p DSR -e 68 -c 2 -a 0 -i 8 -k RTR 
- -t 15.203022576 -s 13 -d 7 -p DSR -e 68 -c 2 -a 0 -i 8 -k RTR
h -t 15.203022576 -s 13 -d 7 -p DSR -e 68 -c 2 -a 0 -i 8 -k RTR
+ -t 15.205159422 -s 7 -d 1 -p DSR -e 76 -c 2 -a 0 -i 12 -k RTR 
- -t 15.205159422 -s 7 -d 1 -p DSR -e 76 -c 2 -a 0 -i 12 -k RTR
h -t 15.205159422 -s 7 -d 1 -p DSR -e 76 -c 2 -a 0 -i 12 -k RTR
+ -t 15.207265422 -s 1 -d 0 -p DSR -e 76 -c 2 -a 0 -i 12 -k RTR 
- -t 15.207265422 -s 1 -d 0 -p DSR -e 76 -c 2 -a 0 -i 12 -k RTR
h -t 15.207265422 -s 1 -d 0 -p DSR -e 76 -c 2 -a 0 -i 12 -k RTR
+ -t 15.213129698 -s 6 -d 10 -p cbr -e 532 -c 2 -a 0 -i 17 -k RTR 
- -t 15.213129698 -s 6 -d 10 -p cbr -e 532 -c 2 -a 0 -i 17 -k RTR
h -t 15.213129698 -s 6 -d 10 -p cbr -e 532 -c 2 -a 0 -i 17 -k RTR
r -t 15.219014233 -s 16 -d 16 -p cbr -e 512 -c 2 -a 0 -i 16 -k AGT
+ -t 15.221216567 -s 7 -d 1 -p DSR -e 68 -c 2 -a 0 -i 8 -k RTR 
- -t 15.221216567 -s 7 -d 1 -p DSR -e 68 -c 2 -a 0 -i 8 -k RTR
h -t 15.221216567 -s 7 -d 1 -p DSR -e 68 -c 2 -a 0 -i 8 -k RTR
+ -t 15.231636412 -s 10 -d 16 -p cbr -e 532 -c 2 -a 0 -i 17 -k RTR 
- -t 15.231636412 -s 10 -d 16 -p cbr -e 532 -c 2 -a 0 -i 17 -k RTR
h -t 15.231636412 -s 10 -d 16 -p cbr -e 532 -c 2 -a 0 -i 17 -k RTR
+ -t 15.233738745 -s 1 -d 0 -p DSR -e 68 -c 2 -a 0 -i 8 -k RTR 
- -t 15.233738745 -s 1 -d 0 -p DSR -e 68 -c 2 -a 0 -i 8 -k RTR
h -t 15.233738745 -s 1 -d 0 -p DSR -e 68 -c 2 -a 0 -i 8 -k RTR
r -t 15.239837745 -s 16 -d 16 -p cbr -e 512 -c 2 -a 0 -i 17 -k AGT
+ -t 15.245541236 -s 11 -d 7 -p DSR -e 76 -c 2 -a 0 -i 14 -k RTR 
- -t 15.245541236 -s 11 -d 7 -p DSR -e 76 -c 2 -a 0 -i 14 -k RTR
h -t 15.245541236 -s 11 -d 7 -p DSR -e 76 -c 2 -a 0 -i 14 -k RTR
+ -t 15.248067472 -s 7 -d 1 -p DSR -e 76 -c 2 -a 0 -i 14 -k RTR 
- -t 15.248067472 -s 7 -d 1 -p DSR -e 76 -c 2 -a 0 -i 14 -k RTR
h -t 15.248067472 -s 7 -d 1 -p DSR -e 76 -c 2 -a 0 -i 14 -k RTR
+ -t 15.250133472 -s 1 -d 0 -p DSR -e 76 -c 2 -a 0 -i 14 -k RTR 
- -t 15.250133472 -s 1 -d 0 -p DSR -e 76 -c 2 -a 0 -i 14 -k RTR
h -t 15.250133472 -s 1 -d 0 -p DSR -e 76 -c 2 -a 0 -i 14 -k RTR
+ -t 15.250472170 -s 0 -d -1 -p cbr -e 512 -c 2 -a 0 -i 18 -k AGT 
- -t 15.250472170 -s 0 -d -1 -p cbr -e 512 -c 2 -a 0 -i 18 -k AGT
h -t 15.250472170 -s 0 -d -1 -p cbr -e 512 -c 2 -a 0 -i 18 -k AGT
+ -t 15.250472170 -s 0 -d 6 -p cbr -e 532 -c 2 -a 0 -i 18 -k RTR 
- -t 15.250472170 -s 0 -d 6 -p cbr -e 532 -c 2 -a 0 -i 18 -k RTR
h -t 15.250472170 -s 0 -d 6 -p cbr -e 532 -c 2 -a 0 -i 18 -k RTR
+ -t 15.258193472 -s 6 -d 10 -p cbr -e 532 -c 2 -a 0 -i 18 -k RTR 
- -t 15.258193472 -s 6 -d 10 -p cbr -e 532 -c 2 -a 0 -i 18 -k RTR
h -t 15.258193472 -s 6 -d 10 -p cbr -e 532 -c 2 -a 0 -i 18 -k RTR
+ -t 15.264427708 -s 10 -d 16 -p cbr -e 532 -c 2 -a 0 -i 18 -k RTR 
- -t 15.264427708 -s 10 -d 16 -p cbr -e 532 -c 2 -a 0 -i 18 -k RTR
h -t 15.264427708 -s 10 -d 16 -p cbr -e 532 -c 2 -a 0 -i 18 -k RTR
r -t 15.270581708 -s 16 -d 16 -p cbr -e 512 -c 2 -a 0 -i 18 -k AGT
+ -t 15.300453473 -s 0 -d -1 -p cbr -e 512 -c 2 -a 0 -i 19 -k AGT 
- -t 15.300453473 -s 0 -d -1 -p cbr -e 512 -c 2 -a 0 -i 19 -k AGT
h -t 15.300453473 -s 0 -d -1 -p cbr -e 512 -c 2 -a 0 -i 19 -k AGT
+ -t 15.300453473 -s 0 -d 6 -p cbr -e 532 -c 2 -a 0 -i 19 -k RTR 
- -t 15.300453473 -s 0 -d 6 -p cbr -e 532 -c 2 -a 0 -i 19 -k RTR
h -t 15.300453473 -s 0 -d 6 -p cbr -e 532 -c 2 -a 0 -i 19 -k RTR
+ -t 15.306223473 -s 6 -d 10 -p cbr -e 532 -c 2 -a 0 -i 19 -k RTR 
- -t 15.306223473 -s 6 -d 10 -p cbr -e 532 -c 2 -a 0 -i 19 -k RTR
h -t 15.306223473 -s 6 -d 10 -p cbr -e 532 -c 2 -a 0 -i 19 -k RTR
+ -t 15.312257709 -s 10 -d 16 -p cbr -e 532 -c 2 -a 0 -i 19 -k RTR 
- -t 15.312257709 -s 10 -d 16 -p cbr -e 532 -c 2 -a 0 -i 19 -k RTR
h -t 15.312257709 -s 10 -d 16 -p cbr -e 532 -c 2 -a 0 -i 19 -k RTR
r -t 15.318151709 -s 16 -d 16 -p cbr -e 512 -c 2 -a 0 -i 19 -k AGT
+ -t 15.353973328 -s 0 -d -1 -p cbr -e 512 -c 2 -a 0 -i 20 -k AGT 
- -t 15.353973328 -s 0 -d -1 -p cbr -e 512 -c 2 -a 0 -i 20 -k AGT
h -t 15.353973328 -s 0 -d -1 -p cbr -e 512 -c 2 -a 0 -i 20 -k AGT
+ -t 15.353973328 -s 0 -d 6 -p cbr -e 532 -c 2 -a 0 -i 20 -k RTR 
- -t 15.353973328 -s 0 -d 6 -p cbr -e 532 -c 2 -a 0 -i 20 -k RTR
h -t 15.353973328 -s 0 -d 6 -p cbr -e 532 -c 2 -a 0 -i 20 -k RTR
+ -t 15.359623328 -s 6 -d 10 -p cbr -e 532 -c 2 -a 0 -i 20 -k RTR 
- -t 15.359623328 -s 6 -d 10 -p cbr -e 532 -c 2 -a 0 -i 20 -k RTR
h -t 15.359623328 -s 6 -d 10 -p cbr -e 532 -c 2 -a 0 -i 20 -k RTR
+ -t 15.365657564 -s 10 -d 16 -p cbr -e 532 -c 2 -a 0 -i 20 -k RTR 
- -t 15.365657564 -s 10 -d 16 -p cbr -e 532 -c 2 -a 0 -i 20 -k RTR
h -t 15.365657564 -s 10 -d 16 -p cbr -e 532 -c 2 -a 0 -i 20 -k RTR
r -t 15.371371564 -s 16 -d 16 -p cbr -e 512 -c 2 -a 0 -i 20 -k AGT
+ -t 15.417561614 -s 0 -d -1 -p cbr -e 512 -c 2 -a 0 -i 21 -k AGT 
- -t 15.417561614 -s 0 -d -1 -p cbr -e 512 -c 2 -a 0 -i 21 -k AGT
h -t 15.417561614 -s 0 -d -1 -p cbr -e 512 -c 2 -a 0 -i 21 -k AGT
+ -t 15.417561614 -s 0 -d 6 -p cbr -e 532 -c 2 -a 0 -i 21 -k RTR 
- -t 15.417561614 -s 0 -d 6 -p cbr -e 532 -c 2 -a 0 -i 21 -k RTR
h -t 15.417561614 -s 0 -d 6 -p cbr -e 532 -c 2 -a 0 -i 21 -k RTR
+ -t 15.423171614 -s 6 -d 10 -p cbr -e 532 -c 2 -a 0 -i 21 -k RTR 
- -t 15.423171614 -s 6 -d 10 -p cbr -e 532 -c 2 -a 0 -i 21 -k RTR
h -t 15.423171614 -s 6 -d 10 -p cbr -e 532 -c 2 -a 0 -i 21 -k RTR
+ -t 15.429245850 -s 10 -d 16 -p cbr -e 532 -c 2 -a 0 -i 21 -k RTR 
- -t 15.429245850 -s 10 -d 16 -p cbr -e 532 -c 2 -a 0 -i 21 -k RTR
h -t 15.429245850 -s 10 -d 16 -p cbr -e 532 -c 2 -a 0 -i 21 -k RTR
r -t 15.435559850 -s 16 -d 16 -p cbr -e 512 -c 2 -a 0 -i 21 -k AGT
+ -t 15.491082102 -s 0 -d -1 -p cbr -e 512 -c 2 -a 0 -i 22 -k AGT 
- -t 15.491082102 -s 0 -d -1 -p cbr -e 512 -c 2 -a 0 -i 22 -k AGT
h -t 15.491082102 -s 0 -d -1 -p cbr -e 512 -c 2 -a 0 -i 22 -k AGT
+ -t 15.491082102 -s 0 -d 6 -p cbr -e 532 -c 2 -a 0 -i 22 -k RTR 
- -t 15.491082102 -s 0 -d 6 -p cbr -e 532 -c 2 -a 0 -i 22 -k RTR
h -t 15.491082102 -s 0 -d 6 -p cbr -e 532 -c 2 -a 0 -i 22 -k RTR
+ -t 15.497092102 -s 6 -d 10 -p cbr -e 532 -c 2 -a 0 -i 22 -k RTR 
- -t 15.497092102 -s 6 -d 10 -p cbr -e 532 -c 2 -a 0 -i 22 -k RTR
h -t 15.497092102 -s 6 -d 10 -p cbr -e 532 -c 2 -a 0 -i 22 -k RTR
+ -t 15.503086338 -s 10 -d 16 -p cbr -e 532 -c 2 -a 0 -i 22 -k RTR 
- -t 15.503086338 -s 10 -d 16 -p cbr -e 532 -c 2 -a 0 -i 22 -k RTR
h -t 15.503086338 -s 10 -d 16 -p cbr -e 532 -c 2 -a 0 -i 22 -k RTR
r -t 15.509220338 -s 16 -d 16 -p cbr -e 512 -c 2 -a 0 -i 22 -k AGT
+ -t 15.562190824 -s 0 -d -1 -p cbr -e 512 -c 2 -a 0 -i 23 -k AGT 
- -t 15.562190824 -s 0 -d -1 -p cbr -e 512 -c 2 -a 0 -i 23 -k AGT
h -t 15.562190824 -s 0 -d -1 -p cbr -e 512 -c 2 -a 0 -i 23 -k AGT
+ -t 15.562190824 -s 0 -d 6 -p cbr -e 532 -c 2 -a 0 -i 23 -k RTR 
- -t 15.562190824 -s 0 -d 6 -p cbr -e 532 -c 2 -a 0 -i 23 -k RTR
h -t 15.562190824 -s 0 -d 6 -p cbr -e 532 -c 2 -a 0 -i 23 -k RTR
+ -t 15.567640824 -s 6 -d 10 -p cbr -e 532 -c 2 -a 0 -i 23 -k RTR 
- -t 15.567640824 -s 6 -d 10 -p cbr -e 532 -c 2 -a 0 -i 23 -k RTR
h -t 15.567640824 -s 6 -d 10 -p cbr -e 532 -c 2 -a 0 -i 23 -k RTR
+ -t 15.573855060 -s 10 -d 16 -p cbr -e 532 -c 2 -a 0 -i 23 -k RTR 
- -t 15.573855060 -s 10 -d 16 -p cbr -e 532 -c 2 -a 0 -i 23 -k RTR
h -t 15.573855060 -s 10 -d 16 -p cbr -e 532 -c 2 -a 0 -i 23 -k RTR
r -t 15.579609060 -s 16 -d 16 -p cbr -e 512 -c 2 -a 0 -i 23 -k AGT
+ -t 15.592336689 -s 0 -d -1 -p cbr -e 512 -c 2 -a 0 -i 24 -k AGT 
- -t 15.592336689 -s 0 -d -1 -p cbr -e 512 -c 2 -a 0 -i 24 -k AGT
h -t 15.592336689 -s 0 -d -1 -p cbr -e 512 -c 2 -a 0 -i 24 -k AGT
+ -t 15.592336689 -s 0 -d 6 -p cbr -e 532 -c 2 -a 0 -i 24 -k RTR 
- -t 15.592336689 -s 0 -d 6 -p cbr -e 532 -c 2 -a 0 -i 24 -k RTR
h -t 15.592336689 -s 0 -d 6 -p cbr -e 532 -c 2 -a 0 -i 24 -k RTR
+ -t 15.598286689 -s 6 -d 10 -p cbr -e 532 -c 2 -a 0 -i 24 -k RTR 
- -t 15.598286689 -s 6 -d 10 -p cbr -e 532 -c 2 -a 0 -i 24 -k RTR
h -t 15.598286689 -s 6 -d 10 -p cbr -e 532 -c 2 -a 0 -i 24 -k RTR
+ -t 15.604360925 -s 10 -d 16 -p cbr -e 532 -c 2 -a 0 -i 24 -k RTR 
- -t 15.604360925 -s 10 -d 16 -p cbr -e 532 -c 2 -a 0 -i 24 -k RTR
h -t 15.604360925 -s 10 -d 16 -p cbr -e 532 -c 2 -a 0 -i 24 -k RTR
r -t 15.610394925 -s 16 -d 16 -p cbr -e 512 -c 2 -a 0 -i 24 -k AGT
+ -t 15.633585239 -s 0 -d -1 -p cbr -e 512 -c 2 -a 0 -i 25 -k AGT 
- -t 15.633585239 -s 0 -d -1 -p cbr -e 512 -c 2 -a 0 -i 25 -k AGT
h -t 15.633585239 -s 0 -d -1 -p cbr -e 512 -c 2 -a 0 -i 25 -k AGT
+ -t 15.633585239 -s 0 -d 6 -p cbr -e 532 -c 2 -a 0 -i 25 -k RTR 
- -t 15.633585239 -s 0 -d 6 -p cbr -e 532 -c 2 -a 0 -i 25 -k RTR
h -t 15.633585239 -s 0 -d 6 -p cbr -e 532 -c 2 -a 0 -i 25 -k RTR
+ -t 15.639375239 -s 6 -d 10 -p cbr -e 532 -c 2 -a 0 -i 25 -k RTR 
- -t 15.639375239 -s 6 -d 10 -p cbr -e 532 -c 2 -a 0 -i 25 -k RTR
h -t 15.639375239 -s 6 -d 10 -p cbr -e 532 -c 2 -a 0 -i 25 -k RTR
+ -t 15.645509475 -s 10 -d 16 -p cbr -e 532 -c 2 -a 0 -i 25 -k RTR 
- -t 15.645509475 -s 10 -d 16 -p cbr -e 532 -c 2 -a 0 -i 25 -k RTR
h -t 15.645509475 -s 10 -d 16 -p cbr -e 532 -c 2 -a 0 -i 25 -k RTR
r -t 15.651563475 -s 16 -d 16 -p cbr -e 512 -c 2 -a 0 -i 25 -k AGT
+ -t 15.669997280 -s 0 -d -1 -p cbr -e 512 -c 2 -a 0 -i 26 -k AGT 
- -t 15.669997280 -s 0 -d -1 -p cbr -e 512 -c 2 -a 0 -i 26 -k AGT
h -t 15.669997280 -s 0 -d -1 -p cbr -e 512 -c 2 -a 0 -i 26 -k AGT
+ -t 15.669997280 -s 0 -d 6 -p cbr -e 532 -c 2 -a 0 -i 26 -k RTR 
- -t 15.669997280 -s 0 -d 6 -p cbr -e 532 -c 2 -a 0 -i 26 -k RTR
h -t 15.669997280 -s 0 -d 6 -p cbr -e 532 -c 2 -a 0 -i 26 -k RTR
+ -t 15.675947280 -s 6 -d 10 -p cbr -e 532 -c 2 -a 0 -i 26 -k RTR 
- -t 15.675947280 -s 6 -d 10 -p cbr -e 532 -c 2 -a 0 -i 26 -k RTR
h -t 15.675947280 -s 6 -d 10 -p cbr -e 532 -c 2 -a 0 -i 26 -k RTR
+ -t 15.681761517 -s 10 -d 16 -p cbr -e 532 -c 2 -a 0 -i 26 -k RTR 
- -t 15.681761517 -s 10 -d 16 -p cbr -e 532 -c 2 -a 0 -i 26 -k RTR
h -t 15.681761517 -s 10 -d 16 -p cbr -e 532 -c 2 -a 0 -i 26 -k RTR
r -t 15.688075517 -s 16 -d 16 -p cbr -e 512 -c 2 -a 0 -i 26 -k AGT
+ -t 15.703663323 -s 0 -d -1 -p cbr -e 512 -c 2 -a 0 -i 27 -k AGT 
- -t 15.703663323 -s 0 -d -1 -p cbr -e 512 -c 2 -a 0 -i 27 -k AGT
h -t 15.703663323 -s 0 -d -1 -p cbr -e 512 -c 2 -a 0 -i 27 -k AGT
+ -t 15.703663323 -s 0 -d 6 -p cbr -e 532 -c 2 -a 0 -i 27 -k RTR 
- -t 15.703663323 -s 0 -d 6 -p cbr -e 532 -c 2 -a 0 -i 27 -k RTR
h -t 15.703663323 -s 0 -d 6 -p cbr -e 532 -c 2 -a 0 -i 27 -k RTR
+ -t 15.709353323 -s 6 -d 10 -p cbr -e 532 -c 2 -a 0 -i 27 -k RTR 
- -t 15.709353323 -s 6 -d 10 -p cbr -e 532 -c 2 -a 0 -i 27 -k RTR
h -t 15.709353323 -s 6 -d 10 -p cbr -e 532 -c 2 -a 0 -i 27 -k RTR
+ -t 15.715307559 -s 10 -d 16 -p cbr -e 532 -c 2 -a 0 -i 27 -k RTR 
- -t 15.715307559 -s 10 -d 16 -p cbr -e 532 -c 2 -a 0 -i 27 -k RTR
h -t 15.715307559 -s 10 -d 16 -p cbr -e 532 -c 2 -a 0 -i 27 -k RTR
r -t 15.721501559 -s 16 -d 16 -p cbr -e 512 -c 2 -a 0 -i 27 -k AGT
+ -t 15.774100469 -s 0 -d -1 -p cbr -e 512 -c 2 -a 0 -i 28 -k AGT 
- -t 15.774100469 -s 0 -d -1 -p cbr -e 512 -c 2 -a 0 -i 28 -k AGT
h -t 15.774100469 -s 0 -d -1 -p cbr -e 512 -c 2 -a 0 -i 28 -k AGT
+ -t 15.774100469 -s 0 -d 6 -p cbr -e 532 -c 2 -a 0 -i 28 -k RTR 
- -t 15.774100469 -s 0 -d 6 -p cbr -e 532 -c 2 -a 0 -i 28 -k RTR
h -t 15.774100469 -s 0 -d 6 -p cbr -e 532 -c 2 -a 0 -i 28 -k RTR
+ -t 15.779930469 -s 6 -d 10 -p cbr -e 532 -c 2 -a 0 -i 28 -k RTR 
- -t 15.779930469 -s 6 -d 10 -p cbr -e 532 -c 2 -a 0 -i 28 -k RTR
h -t 15.779930469 -s 6 -d 10 -p cbr -e 532 -c 2 -a 0 -i 28 -k RTR
+ -t 15.785644705 -s 10 -d 16 -p cbr -e 532 -c 2 -a 0 -i 28 -k RTR 
- -t 15.785644705 -s 10 -d 16 -p cbr -e 532 -c 2 -a 0 -i 28 -k RTR
h -t 15.785644705 -s 10 -d 16 -p cbr -e 532 -c 2 -a 0 -i 28 -k RTR
r -t 15.791738705 -s 16 -d 16 -p cbr -e 512 -c 2 -a 0 -i 28 -k AGT
+ -t 15.800382665 -s 0 -d -1 -p cbr -e 512 -c 2 -a 0 -i 29 -k AGT 
- -t 15.800382665 -s 0 -d -1 -p cbr -e 512 -c 2 -a 0 -i 29 -k AGT
h -t 15.800382665 -s 0 -d -1 -p cbr -e 512 -c 2 -a 0 -i 29 -k AGT
+ -t 15.800382665 -s 0 -d 6 -p cbr -e 532 -c 2 -a 0 -i 29 -k RTR 
- -t 15.800382665 -s 0 -d 6 -p cbr -e 532 -c 2 -a 0 -i 29 -k RTR
h -t 15.800382665 -s 0 -d 6 -p cbr -e 532 -c 2 -a 0 -i 29 -k RTR
+ -t 15.806272665 -s 6 -d 10 -p cbr -e 532 -c 2 -a 0 -i 29 -k RTR 
- -t 15.806272665 -s 6 -d 10 -p cbr -e 532 -c 2 -a 0 -i 29 -k RTR
h -t 15.806272665 -s 6 -d 10 -p cbr -e 532 -c 2 -a 0 -i 29 -k RTR
+ -t 15.812186901 -s 10 -d 16 -p cbr -e 532 -c 2 -a 0 -i 29 -k RTR 
- -t 15.812186901 -s 10 -d 16 -p cbr -e 532 -c 2 -a 0 -i 29 -k RTR
h -t 15.812186901 -s 10 -d 16 -p cbr -e 532 -c 2 -a 0 -i 29 -k RTR
r -t 15.818180901 -s 16 -d 16 -p cbr -e 512 -c 2 -a 0 -i 29 -k AGT
+ -t 15.850659952 -s 0 -d -1 -p cbr -e 512 -c 2 -a 0 -i 30 -k AGT 
- -t 15.850659952 -s 0 -d -1 -p cbr -e 512 -c 2 -a 0 -i 30 -k AGT
h -t 15.850659952 -s 0 -d -1 -p cbr -e 512 -c 2 -a 0 -i 30 -k AGT
+ -t 15.850659952 -s 0 -d 6 -p cbr -e 532 -c 2 -a 0 -i 30 -k RTR 
- -t 15.850659952 -s 0 -d 6 -p cbr -e 532 -c 2 -a 0 -i 30 -k RTR
h -t 15.850659952 -s 0 -d 6 -p cbr -e 532 -c 2 -a 0 -i 30 -k RTR
+ -t 15.856669952 -s 6 -d 10 -p cbr -e 532 -c 2 -a 0 -i 30 -k RTR 
- -t 15.856669952 -s 6 -d 10 -p cbr -e 532 -c 2 -a 0 -i 30 -k RTR
h -t 15.856669952 -s 6 -d 10 -p cbr -e 532 -c 2 -a 0 -i 30 -k RTR
+ -t 15.862724188 -s 10 -d 16 -p cbr -e 532 -c 2 -a 0 -i 30 -k RTR 
- -t 15.862724188 -s 10 -d 16 -p cbr -e 532 -c 2 -a 0 -i 30 -k RTR
h -t 15.862724188 -s 10 -d 16 -p cbr -e 532 -c 2 -a 0 -i 30 -k RTR
r -t 15.868638188 -s 16 -d 16 -p cbr -e 512 -c 2 -a 0 -i 30 -k AGT
+ -t 15.906139302 -s 0 -d -1 -p cbr -e 512 -c 2 -a 0 -i 31 -k AGT 
- -t 15.906139302 -s 0 -d -1 -p cbr -e 512 -c 2 -a 0 -i 31 -k AGT
h -t 15.906139302 -s 0 -d -1 -p cbr -e 512 -c 2 -a 0 -i 31 -k AGT
+ -t 15.906139302 -s 0 -d 6 -p cbr -e 532 -c 2 -a 0 -i 31 -k RTR 
- -t 15.906139302 -s 0 -d 6 -p cbr -e 532 -c 2 -a 0 -i 31 -k RTR
h -t 15.906139302 -s 0 -d 6 -p cbr -e 532 -c 2 -a 0 -i 31 -k RTR
+ -t 15.911749302 -s 6 -d 10 -p cbr -e 532 -c 2 -a 0 -i 31 -k RTR 
- -t 15.911749302 -s 6 -d 10 -p cbr -e 532 -c 2 -a 0 -i 31 -k RTR
h -t 15.911749302 -s 6 -d 10 -p cbr -e 532 -c 2 -a 0 -i 31 -k RTR
+ -t 15.917463538 -s 10 -d 16 -p cbr -e 532 -c 2 -a 0 -i 31 -k RTR 
- -t 15.917463538 -s 10 -d 16 -p cbr -e 532 -c 2 -a 0 -i 31 -k RTR
h -t 15.917463538 -s 10 -d 16 -p cbr -e 532 -c 2 -a 0 -i 31 -k RTR
r -t 15.923757538 -s 16 -d 16 -p cbr -e 512 -c 2 -a 0 -i 31 -k AGT
+ -t 15.975020960 -s 0 -d -1 -p cbr -e 512 -c 2 -a 0 -i 32 -k AGT 
- -t 15.975020960 -s 0 -d -1 -p cbr -e 512 -c 2 -a 0 -i 32 -k AGT
h -t 15.975020960 -s 0 -d -1 -p cbr -e 512 -c 2 -a 0 -i 32 -k AGT
+ -t 15.975020960 -s 0 -d 6 -p cbr -e 532 -c 2 -a 0 -i 32 -k RTR 
- -t 15.975020960 -s 0 -d 6 -p cbr -e 532 -c 2 -a 0 -i 32 -k RTR
h -t 15.975020960 -s 0 -d 6 -p cbr -e 532 -c 2 -a 0 -i 32 -k RTR
+ -t 15.980850960 -s 6 -d 10 -p cbr -e 532 -c 2 -a 0 -i 32 -k RTR 
- -t 15.980850960 -s 6 -d 10 -p cbr -e 532 -c 2 -a 0 -i 32 -k RTR
h -t 15.980850960 -s 6 -d 10 -p cbr -e 532 -c 2 -a 0 -i 32 -k RTR
+ -t 15.986945196 -s 10 -d 16 -p cbr -e 532 -c 2 -a 0 -i 32 -k RTR 
- -t 15.986945196 -s 10 -d 16 -p cbr -e 532 -c 2 -a 0 -i 32 -k RTR
h -t 15.986945196 -s 10 -d 16 -p cbr -e 532 -c 2 -a 0 -i 32 -k RTR
r -t 15.992879196 -s 16 -d 16 -p cbr -e 512 -c 2 -a 0 -i 32 -k AGT
+ -t 16.047012919 -s 0 -d -1 -p cbr -e 512 -c 2 -a 0 -i 33 -k AGT 
- -t 16.047012919 -s 0 -d -1 -p cbr -e 512 -c 2 -a 0 -i 33 -k AGT
h -t 16.047012919 -s 0 -d -1 -p cbr -e 512 -c 2 -a 0 -i 33 -k AGT
+ -t 16.047012919 -s 0 -d 6 -p cbr -e 532 -c 2 -a 0 -i 33 -k RTR 
- -t 16.047012919 -s 0 -d 6 -p cbr -e 532 -c 2 -a 0 -i 33 -k RTR
h -t 16.047012919 -s 0 -d 6 -p cbr -e 532 -c 2 -a 0 -i 33 -k RTR
+ -t 16.052922919 -s 6 -d 10 -p cbr -e 532 -c 2 -a 0 -i 33 -k RTR 
- -t 16.052922919 -s 6 -d 10 -p cbr -e 532 -c 2 -a 0 -i 33 -k RTR