n -t * -s 0  -x 100 -y 100 -Z 0 -z 30  -v circle -c black
n -t * -s 1  -x 300 -y 100 -Z 0 -z 30  -v circle -c black
n -t * -s 2  -x 500 -y 100 -Z 0 -z 30  -v circle -c black
n -t * -s 3  -x 100 -y 300 -Z 0 -z 30  -v circle -c black
n -t * -s 4  -x 300 -y 300 -Z 0 -z 30  -v circle -c black
n -t * -s 5  -x 500 -y 300 -Z 0 -z 30  -v circle -c black
n -t * -s 6  -x 100 -y 500 -Z 0 -z 30  -v circle -c black
n -t * -s 7  -x 300 -y 500 -Z 0 -z 30  -v circle -c black
n -t * -s 8  -x 500 -y 500 -Z 0 -z 30  -v circle -c black
V -t * -v 1.0a5 -a 0
W -t * -x 500 -y 500
A -t * -n 1 -p 0 -o 0xffffffff -c 31 -a 1
A -t * -h 1 -m 2147483647 -s 0
+ -t 15.000000000 -s 0 -d -1 -p cbr -e 512 -c 2 -a 0 -i 0 -k AGT 
- -t 15.000000000 -s 0 -d -1 -p cbr -e 512 -c 2 -a 0 -i 0 -k AGT
h -t 15.000000000 -s 0 -d -1 -p cbr -e 512 -c 2 -a 0 -i 0 -k AGT
+ -t 15.000000000 -s 1 -d -1 -p cbr -e 512 -c 2 -a 0 -i 2 -k AGT 
- -t 15.000000000 -s 1 -d -1 -p cbr -e 512 -c 2 -a 0 -i 2 -k AGT
h -t 15.000000000 -s 1 -d -1 -p cbr -e 512 -c 2 -a 0 -i 2 -k AGT
+ -t 15.000000000 -s 3 -d -1 -p cbr -e 512 -c 2 -a 0 -i 4 -k AGT 
- -t 15.000000000 -s 3 -d -1 -p cbr -e 512 -c 2 -a 0 -i 4 -k AGT
h -t 15.000000000 -s 3 -d -1 -p cbr -e 512 -c 2 -a 0 -i 4 -k AGT
+ -t 15.006016207 -s 1 -d -1 -p DSR -e 32 -c 2 -a 0 -i 3 -k RTR 
- -t 15.006016207 -s 1 -d -1 -p DSR -e 32 -c 2 -a 0 -i 3 -k RTR
h -t 15.006016207 -s 1 -d -1 -p DSR -e 32 -c 2 -a 0 -i 3 -k RTR
+ -t 15.007498042 -s 3 -d -1 -p DSR -e 32 -c 2 -a 0 -i 5 -k RTR 
- -t 15.007498042 -s 3 -d -1 -p DSR -e 32 -c 2 -a 0 -i 5 -k RTR
h -t 15.007498042 -s 3 -d -1 -p DSR -e 32 -c 2 -a 0 -i 5 -k RTR
+ -t 15.009523409 -s 0 -d -1 -p DSR -e 32 -c 2 -a 0 -i 1 -k RTR 
- -t 15.009523409 -s 0 -d -1 -p DSR -e 32 -c 2 -a 0 -i 1 -k RTR
h -t 15.009523409 -s 0 -d -1 -p DSR -e 32 -c 2 -a 0 -i 1 -k RTR
+ -t 15.030829678 -s 3 -d -1 -p DSR -e 32 -c 2 -a 0 -i 8 -k RTR 
- -t 15.030829678 -s 3 -d -1 -p DSR -e 32 -c 2 -a 0 -i 8 -k RTR
h -t 15.030829678 -s 3 -d -1 -p DSR -e 32 -c 2 -a 0 -i 8 -k RTR
+ -t 15.033242053 -s 4 -d -1 -p DSR -e 48 -c 2 -a 0 -i 8 -k RTR 
- -t 15.033242053 -s 4 -d -1 -p DSR -e 48 -c 2 -a 0 -i 8 -k RTR
h -t 15.033242053 -s 4 -d -1 -p DSR -e 48 -c 2 -a 0 -i 8 -k RTR
+ -t 15.039159854 -s 5 -d -1 -p DSR -e 68 -c 2 -a 0 -i 8 -k RTR 
- -t 15.039159854 -s 5 -d -1 -p DSR -e 68 -c 2 -a 0 -i 8 -k RTR
h -t 15.039159854 -s 5 -d -1 -p DSR -e 68 -c 2 -a 0 -i 8 -k RTR
+ -t 15.040033770 -s 6 -d -1 -p DSR -e 48 -c 2 -a 0 -i 8 -k RTR 
- -t 15.040033770 -s 6 -d -1 -p DSR -e 48 -c 2 -a 0 -i 8 -k RTR
h -t 15.040033770 -s 6 -d -1 -p DSR -e 48 -c 2 -a 0 -i 8 -k RTR
+ -t 15.040597854 -s 0 -d -1 -p DSR -e 48 -c 2 -a 0 -i 8 -k RTR 
- -t 15.040597854 -s 0 -d -1 -p DSR -e 48 -c 2 -a 0 -i 8 -k RTR
h -t 15.040597854 -s 0 -d -1 -p DSR -e 48 -c 2 -a 0 -i 8 -k RTR
+ -t 15.041802605 -s 2 -d 5 -p DSR -e 60 -c 2 -a 0 -i 9 -k RTR 
- -t 15.041802605 -s 2 -d 5 -p DSR -e 60 -c 2 -a 0 -i 9 -k RTR
h -t 15.041802605 -s 2 -d 5 -p DSR -e 60 -c 2 -a 0 -i 9 -k RTR
+ -t 15.042383881 -s 7 -d -1 -p DSR -e 68 -c 2 -a 0 -i 8 -k RTR 
- -t 15.042383881 -s 7 -d -1 -p DSR -e 68 -c 2 -a 0 -i 8 -k RTR
h -t 15.042383881 -s 7 -d -1 -p DSR -e 68 -c 2 -a 0 -i 8 -k RTR
+ -t 15.044020938 -s 1 -d -1 -p DSR -e 68 -c 2 -a 0 -i 8 -k RTR 
- -t 15.044020938 -s 1 -d -1 -p DSR -e 68 -c 2 -a 0 -i 8 -k RTR
h -t 15.044020938 -s 1 -d -1 -p DSR -e 68 -c 2 -a 0 -i 8 -k RTR
+ -t 15.045996753 -s 8 -d -1 -p DSR -e 92 -c 2 -a 0 -i 8 -k RTR 
- -t 15.045996753 -s 8 -d -1 -p DSR -e 92 -c 2 -a 0 -i 8 -k RTR
h -t 15.045996753 -s 8 -d -1 -p DSR -e 92 -c 2 -a 0 -i 8 -k RTR
+ -t 15.048254023 -s 1 -d -1 -p DSR -e 32 -c 2 -a 0 -i 11 -k RTR 
- -t 15.048254023 -s 1 -d -1 -p DSR -e 32 -c 2 -a 0 -i 11 -k RTR
h -t 15.048254023 -s 1 -d -1 -p DSR -e 32 -c 2 -a 0 -i 11 -k RTR
+ -t 15.049205429 -s 5 -d 4 -p DSR -e 60 -c 2 -a 0 -i 9 -k RTR 
- -t 15.049205429 -s 5 -d 4 -p DSR -e 60 -c 2 -a 0 -i 9 -k RTR
h -t 15.049205429 -s 5 -d 4 -p DSR -e 60 -c 2 -a 0 -i 9 -k RTR
+ -t 15.050168774 -s 0 -d -1 -p cbr -e 512 -c 2 -a 0 -i 12 -k AGT 
- -t 15.050168774 -s 0 -d -1 -p cbr -e 512 -c 2 -a 0 -i 12 -k AGT
h -t 15.050168774 -s 0 -d -1 -p cbr -e 512 -c 2 -a 0 -i 12 -k AGT
+ -t 15.052661895 -s 2 -d 1 -p DSR -e 60 -c 2 -a 0 -i 10 -k RTR 
- -t 15.052661895 -s 2 -d 1 -p DSR -e 60 -c 2 -a 0 -i 10 -k RTR
h -t 15.052661895 -s 2 -d 1 -p DSR -e 60 -c 2 -a 0 -i 10 -k RTR
+ -t 15.052736762 -s 4 -d 3 -p DSR -e 60 -c 2 -a 0 -i 9 -k RTR 
- -t 15.052736762 -s 4 -d 3 -p DSR -e 60 -c 2 -a 0 -i 9 -k RTR
h -t 15.052736762 -s 4 -d 3 -p DSR -e 60 -c 2 -a 0 -i 9 -k RTR
+ -t 15.054994762 -s 3 -d 4 -p cbr -e 556 -c 2 -a 0 -i 4 -k RTR 
- -t 15.054994762 -s 3 -d 4 -p cbr -e 556 -c 2 -a 0 -i 4 -k RTR
h -t 15.054994762 -s 3 -d 4 -p cbr -e 556 -c 2 -a 0 -i 4 -k RTR
+ -t 15.057238245 -s 0 -d -1 -p DSR -e 32 -c 2 -a 0 -i 13 -k RTR 
- -t 15.057238245 -s 0 -d -1 -p DSR -e 32 -c 2 -a 0 -i 13 -k RTR
h -t 15.057238245 -s 0 -d -1 -p DSR -e 32 -c 2 -a 0 -i 13 -k RTR
+ -t 15.061220762 -s 4 -d 5 -p cbr -e 556 -c 2 -a 0 -i 4 -k RTR 
- -t 15.061220762 -s 4 -d 5 -p cbr -e 556 -c 2 -a 0 -i 4 -k RTR
h -t 15.061220762 -s 4 -d 5 -p cbr -e 556 -c 2 -a 0 -i 4 -k RTR
+ -t 15.062685882 -s 2 -d -1 -p DSR -e 48 -c 2 -a 0 -i 11 -k RTR 
- -t 15.062685882 -s 2 -d -1 -p DSR -e 48 -c 2 -a 0 -i 11 -k RTR
h -t 15.062685882 -s 2 -d -1 -p DSR -e 48 -c 2 -a 0 -i 11 -k RTR
+ -t 15.065499038 -s 1 -d 4 -p DSR -e 60 -c 2 -a 0 -i 10 -k RTR 
- -t 15.065499038 -s 1 -d 4 -p DSR -e 60 -c 2 -a 0 -i 10 -k RTR
h -t 15.065499038 -s 1 -d 4 -p DSR -e 60 -c 2 -a 0 -i 10 -k RTR
+ -t 15.066662244 -s 0 -d -1 -p DSR -e 48 -c 2 -a 0 -i 11 -k RTR 
- -t 15.066662244 -s 0 -d -1 -p DSR -e 48 -c 2 -a 0 -i 11 -k RTR
h -t 15.066662244 -s 0 -d -1 -p DSR -e 48 -c 2 -a 0 -i 11 -k RTR
+ -t 15.067477038 -s 4 -d 3 -p DSR -e 60 -c 2 -a 0 -i 10 -k RTR 
- -t 15.067477038 -s 4 -d 3 -p DSR -e 60 -c 2 -a 0 -i 10 -k RTR
h -t 15.067477038 -s 4 -d 3 -p DSR -e 60 -c 2 -a 0 -i 10 -k RTR
+ -t 15.069953054 -s 1 -d -1 -p DSR -e 48 -c 2 -a 0 -i 13 -k RTR 
- -t 15.069953054 -s 1 -d -1 -p DSR -e 48 -c 2 -a 0 -i 13 -k RTR
h -t 15.069953054 -s 1 -d -1 -p DSR -e 48 -c 2 -a 0 -i 13 -k RTR
+ -t 15.070215354 -s 4 -d -1 -p DSR -e 48 -c 2 -a 0 -i 11 -k RTR 
- -t 15.070215354 -s 4 -d -1 -p DSR -e 48 -c 2 -a 0 -i 11 -k RTR
h -t 15.070215354 -s 4 -d -1 -p DSR -e 48 -c 2 -a 0 -i 11 -k RTR
+ -t 15.071546929 -s 3 -d -1 -p DSR -e 48 -c 2 -a 0 -i 13 -k RTR 
- -t 15.071546929 -s 3 -d -1 -p DSR -e 48 -c 2 -a 0 -i 13 -k RTR
h -t 15.071546929 -s 3 -d -1 -p DSR -e 48 -c 2 -a 0 -i 13 -k RTR
+ -t 15.073423038 -s 5 -d 2 -p cbr -e 556 -c 2 -a 0 -i 4 -k RTR 
- -t 15.073423038 -s 5 -d 2 -p cbr -e 556 -c 2 -a 0 -i 4 -k RTR
h -t 15.073423038 -s 5 -d 2 -p cbr -e 556 -c 2 -a 0 -i 4 -k RTR
r -t 15.079329038 -s 2 -d 2 -p cbr -e 512 -c 2 -a 0 -i 4 -k AGT
+ -t 15.084462570 -s 2 -d -1 -p DSR -e 68 -c 2 -a 0 -i 13 -k RTR 
- -t 15.084462570 -s 2 -d -1 -p DSR -e 68 -c 2 -a 0 -i 13 -k RTR
h -t 15.084462570 -s 2 -d -1 -p DSR -e 68 -c 2 -a 0 -i 13 -k RTR
+ -t 15.085400101 -s 7 -d -1 -p DSR -e 68 -c 2 -a 0 -i 11 -k RTR 
- -t 15.085400101 -s 7 -d -1 -p DSR -e 68 -c 2 -a 0 -i 11 -k RTR
h -t 15.085400101 -s 7 -d -1 -p DSR -e 68 -c 2 -a 0 -i 11 -k RTR
+ -t 15.086011648 -s 6 -d -1 -p DSR -e 68 -c 2 -a 0 -i 13 -k RTR 
- -t 15.086011648 -s 6 -d -1 -p DSR -e 68 -c 2 -a 0 -i 13 -k RTR
h -t 15.086011648 -s 6 -d -1 -p DSR -e 68 -c 2 -a 0 -i 13 -k RTR
+ -t 15.086284141 -s 4 -d -1 -p DSR -e 68 -c 2 -a 0 -i 13 -k RTR 
- -t 15.086284141 -s 4 -d -1 -p DSR -e 68 -c 2 -a 0 -i 13 -k RTR
h -t 15.086284141 -s 4 -d -1 -p DSR -e 68 -c 2 -a 0 -i 13 -k RTR
+ -t 15.086695665 -s 5 -d -1 -p DSR -e 68 -c 2 -a 0 -i 11 -k RTR 
- -t 15.086695665 -s 5 -d -1 -p DSR -e 68 -c 2 -a 0 -i 11 -k RTR
h -t 15.086695665 -s 5 -d -1 -p DSR -e 68 -c 2 -a 0 -i 11 -k RTR
+ -t 15.090207244 -s 3 -d -1 -p cbr -e 512 -c 2 -a 0 -i 18 -k AGT 
- -t 15.090207244 -s 3 -d -1 -p cbr -e 512 -c 2 -a 0 -i 18 -k AGT
h -t 15.090207244 -s 3 -d -1 -p cbr -e 512 -c 2 -a 0 -i 18 -k AGT
+ -t 15.090207244 -s 3 -d 4 -p cbr -e 556 -c 2 -a 0 -i 18 -k RTR 
- -t 15.090207244 -s 3 -d 4 -p cbr -e 556 -c 2 -a 0 -i 18 -k RTR
h -t 15.090207244 -s 3 -d 4 -p cbr -e 556 -c 2 -a 0 -i 18 -k RTR
+ -t 15.090404849 -s 8 -d -1 -p DSR -e 92 -c 2 -a 0 -i 11 -k RTR 
- -t 15.090404849 -s 8 -d -1 -p DSR -e 92 -c 2 -a 0 -i 11 -k RTR
h -t 15.090404849 -s 8 -d -1 -p DSR -e 92 -c 2 -a 0 -i 11 -k RTR
+ -t 15.092509579 -s 3 -d -1 -p DSR -e 68 -c 2 -a 0 -i 11 -k RTR 
- -t 15.092509579 -s 3 -d -1 -p DSR -e 68 -c 2 -a 0 -i 11 -k RTR
h -t 15.092509579 -s 3 -d -1 -p DSR -e 68 -c 2 -a 0 -i 11 -k RTR
+ -t 15.092957709 -s 6 -d 7 -p DSR -e 60 -c 2 -a 0 -i 17 -k RTR 
- -t 15.092957709 -s 6 -d 7 -p DSR -e 60 -c 2 -a 0 -i 17 -k RTR
h -t 15.092957709 -s 6 -d 7 -p DSR -e 60 -c 2 -a 0 -i 17 -k RTR
+ -t 15.093173913 -s 7 -d 6 -p DSR -e 60 -c 2 -a 0 -i 16 -k RTR 
- -t 15.093173913 -s 7 -d 6 -p DSR -e 60 -c 2 -a 0 -i 16 -k RTR
h -t 15.093173913 -s 7 -d 6 -p DSR -e 60 -c 2 -a 0 -i 16 -k RTR
+ -t 15.096808020 -s 4 -d 5 -p cbr -e 556 -c 2 -a 0 -i 18 -k RTR 
- -t 15.096808020 -s 4 -d 5 -p cbr -e 556 -c 2 -a 0 -i 18 -k RTR
h -t 15.096808020 -s 4 -d 5 -p cbr -e 556 -c 2 -a 0 -i 18 -k RTR
+ -t 15.097412485 -s 7 -d 4 -p DSR -e 60 -c 2 -a 0 -i 19 -k RTR 
- -t 15.097412485 -s 7 -d 4 -p DSR -e 60 -c 2 -a 0 -i 19 -k RTR
h -t 15.097412485 -s 7 -d 4 -p DSR -e 60 -c 2 -a 0 -i 19 -k RTR
+ -t 15.098287990 -s 6 -d 3 -p DSR -e 60 -c 2 -a 0 -i 22 -k RTR 
- -t 15.098287990 -s 6 -d 3 -p DSR -e 60 -c 2 -a 0 -i 22 -k RTR
h -t 15.098287990 -s 6 -d 3 -p DSR -e 60 -c 2 -a 0 -i 22 -k RTR
+ -t 15.101057841 -s 5 -d -1 -p DSR -e 92 -c 2 -a 0 -i 13 -k RTR 
- -t 15.101057841 -s 5 -d -1 -p DSR -e 92 -c 2 -a 0 -i 13 -k RTR
h -t 15.101057841 -s 5 -d -1 -p DSR -e 92 -c 2 -a 0 -i 13 -k RTR
+ -t 15.103945353 -s 5 -d 2 -p cbr -e 556 -c 2 -a 0 -i 18 -k RTR 
- -t 15.103945353 -s 5 -d 2 -p cbr -e 556 -c 2 -a 0 -i 18 -k RTR
h -t 15.103945353 -s 5 -d 2 -p cbr -e 556 -c 2 -a 0 -i 18 -k RTR
+ -t 15.108314127 -s 8 -d -1 -p DSR -e 120 -c 2 -a 0 -i 13 -k RTR 
- -t 15.108314127 -s 8 -d -1 -p DSR -e 120 -c 2 -a 0 -i 13 -k RTR
h -t 15.108314127 -s 8 -d -1 -p DSR -e 120 -c 2 -a 0 -i 13 -k RTR
r -t 15.113746686 -s 2 -d 2 -p cbr -e 512 -c 2 -a 0 -i 18 -k AGT
+ -t 15.115755510 -s 7 -d 4 -p DSR -e 60 -c 2 -a 0 -i 17 -k RTR 
- -t 15.115755510 -s 7 -d 4 -p DSR -e 60 -c 2 -a 0 -i 17 -k RTR
h -t 15.115755510 -s 7 -d 4 -p DSR -e 60 -c 2 -a 0 -i 17 -k RTR
+ -t 15.117914177 -s 3 -d 0 -p DSR -e 60 -c 2 -a 0 -i 22 -k RTR 
- -t 15.117914177 -s 3 -d 0 -p DSR -e 60 -c 2 -a 0 -i 22 -k RTR
h -t 15.117914177 -s 3 -d 0 -p DSR -e 60 -c 2 -a 0 -i 22 -k RTR
+ -t 15.120212177 -s 0 -d 1 -p DSR -e 60 -c 2 -a 0 -i 22 -k RTR 
- -t 15.120212177 -s 0 -d 1 -p DSR -e 60 -c 2 -a 0 -i 22 -k RTR
h -t 15.120212177 -s 0 -d 1 -p DSR -e 60 -c 2 -a 0 -i 22 -k RTR
+ -t 15.124557668 -s 6 -d 3 -p DSR -e 60 -c 2 -a 0 -i 16 -k RTR 
- -t 15.124557668 -s 6 -d 3 -p DSR -e 60 -c 2 -a 0 -i 16 -k RTR
h -t 15.124557668 -s 6 -d 3 -p DSR -e 60 -c 2 -a 0 -i 16 -k RTR
+ -t 15.126935668 -s 3 -d 0 -p DSR -e 60 -c 2 -a 0 -i 16 -k RTR 
- -t 15.126935668 -s 3 -d 0 -p DSR -e 60 -c 2 -a 0 -i 16 -k RTR
h -t 15.126935668 -s 3 -d 0 -p DSR -e 60 -c 2 -a 0 -i 16 -k RTR
+ -t 15.129293668 -s 0 -d 3 -p cbr -e 556 -c 2 -a 0 -i 0 -k RTR 
- -t 15.129293668 -s 0 -d 3 -p cbr -e 556 -c 2 -a 0 -i 0 -k RTR
h -t 15.129293668 -s 0 -d 3 -p cbr -e 556 -c 2 -a 0 -i 0 -k RTR
+ -t 15.131737158 -s 4 -d 1 -p DSR -e 60 -c 2 -a 0 -i 17 -k RTR 
- -t 15.131737158 -s 4 -d 1 -p DSR -e 60 -c 2 -a 0 -i 17 -k RTR
h -t 15.131737158 -s 4 -d 1 -p DSR -e 60 -c 2 -a 0 -i 17 -k RTR
+ -t 15.133675825 -s 4 -d 1 -p DSR -e 60 -c 2 -a 0 -i 19 -k RTR 
- -t 15.133675825 -s 4 -d 1 -p DSR -e 60 -c 2 -a 0 -i 19 -k RTR
h -t 15.133675825 -s 4 -d 1 -p DSR -e 60 -c 2 -a 0 -i 19 -k RTR
+ -t 15.136213825 -s 1 -d 4 -p cbr -e 556 -c 2 -a 0 -i 2 -k RTR 
- -t 15.136213825 -s 1 -d 4 -p cbr -e 556 -c 2 -a 0 -i 2 -k RTR
h -t 15.136213825 -s 1 -d 4 -p cbr -e 556 -c 2 -a 0 -i 2 -k RTR
+ -t 15.140131978 -s 0 -d -1 -p cbr -e 512 -c 2 -a 0 -i 24 -k AGT 
- -t 15.140131978 -s 0 -d -1 -p cbr -e 512 -c 2 -a 0 -i 24 -k AGT
h -t 15.140131978 -s 0 -d -1 -p cbr -e 512 -c 2 -a 0 -i 24 -k AGT
+ -t 15.140131978 -s 0 -d 3 -p cbr -e 556 -c 2 -a 0 -i 24 -k RTR 
- -t 15.140131978 -s 0 -d 3 -p cbr -e 556 -c 2 -a 0 -i 24 -k RTR
h -t 15.140131978 -s 0 -d 3 -p cbr -e 556 -c 2 -a 0 -i 24 -k RTR
+ -t 15.141724709 -s 1 -d -1 -p cbr -e 512 -c 2 -a 0 -i 25 -k AGT 
- -t 15.141724709 -s 1 -d -1 -p cbr -e 512 -c 2 -a 0 -i 25 -k AGT
h -t 15.141724709 -s 1 -d -1 -p cbr -e 512 -c 2 -a 0 -i 25 -k AGT
+ -t 15.141724709 -s 1 -d 4 -p cbr -e 556 -c 2 -a 0 -i 25 -k RTR 
- -t 15.141724709 -s 1 -d 4 -p cbr -e 556 -c 2 -a 0 -i 25 -k RTR
h -t 15.141724709 -s 1 -d 4 -p cbr -e 556 -c 2 -a 0 -i 25 -k RTR
+ -t 15.142139825 -s 4 -d 7 -p cbr -e 556 -c 2 -a 0 -i 2 -k RTR 
- -t 15.142139825 -s 4 -d 7 -p cbr -e 556 -c 2 -a 0 -i 2 -k RTR
h -t 15.142139825 -s 4 -d 7 -p cbr -e 556 -c 2 -a 0 -i 2 -k RTR
+ -t 15.144317825 -s 1 -d 0 -p DSR -e 60 -c 2 -a 0 -i 19 -k RTR 
- -t 15.144317825 -s 1 -d 0 -p DSR -e 60 -c 2 -a 0 -i 19 -k RTR
h -t 15.144317825 -s 1 -d 0 -p DSR -e 60 -c 2 -a 0 -i 19 -k RTR
+ -t 15.150263825 -s 4 -d 7 -p cbr -e 556 -c 2 -a 0 -i 25 -k RTR 
- -t 15.150263825 -s 4 -d 7 -p cbr -e 556 -c 2 -a 0 -i 25 -k RTR
h -t 15.150263825 -s 4 -d 7 -p cbr -e 556 -c 2 -a 0 -i 25 -k RTR
+ -t 15.156449825 -s 7 -d 6 -p cbr -e 556 -c 2 -a 0 -i 2 -k RTR 
- -t 15.156449825 -s 7 -d 6 -p cbr -e 556 -c 2 -a 0 -i 2 -k RTR
h -t 15.156449825 -s 7 -d 6 -p cbr -e 556 -c 2 -a 0 -i 2 -k RTR
+ -t 15.159293668 -s 0 -d 3 -p cbr -e 556 -c 2 -a 0 -i 12 -k RTR 
- -t 15.159293668 -s 0 -d 3 -p cbr -e 556 -c 2 -a 0 -i 12 -k RTR
h -t 15.159293668 -s 0 -d 3 -p cbr -e 556 -c 2 -a 0 -i 12 -k RTR
r -t 15.162635825 -s 6 -d 6 -p cbr -e 512 -c 2 -a 0 -i 2 -k AGT
+ -t 15.168966768 -s 7 -d 6 -p cbr -e 556 -c 2 -a 0 -i 25 -k RTR 
- -t 15.168966768 -s 7 -d 6 -p cbr -e 556 -c 2 -a 0 -i 25 -k RTR
h -t 15.168966768 -s 7 -d 6 -p cbr -e 556 -c 2 -a 0 -i 25 -k RTR
r -t 15.175012768 -s 6 -d 6 -p cbr -e 512 -c 2 -a 0 -i 25 -k AGT
+ -t 15.186180925 -s 3 -d 6 -p cbr -e 556 -c 2 -a 0 -i 0 -k RTR 
- -t 15.186180925 -s 3 -d 6 -p cbr -e 556 -c 2 -a 0 -i 0 -k RTR
h -t 15.186180925 -s 3 -d 6 -p cbr -e 556 -c 2 -a 0 -i 0 -k RTR
+ -t 15.192546925 -s 6 -d 7 -p cbr -e 556 -c 2 -a 0 -i 0 -k RTR 
- -t 15.192546925 -s 6 -d 7 -p cbr -e 556 -c 2 -a 0 -i 0 -k RTR
h -t 15.192546925 -s 6 -d 7 -p cbr -e 556 -c 2 -a 0 -i 0 -k RTR
r -t 15.198772925 -s 7 -d 7 -p cbr -e 512 -c 2 -a 0 -i 0 -k AGT
+ -t 15.200852582 -s 3 -d -1 -p cbr -e 512 -c 2 -a 0 -i 26 -k AGT 
- -t 15.200852582 -s 3 -d -1 -p cbr -e 512 -c 2 -a 0 -i 26 -k AGT
h -t 15.200852582 -s 3 -d -1 -p cbr -e 512 -c 2 -a 0 -i 26 -k AGT
+ -t 15.200852582 -s 3 -d 4 -p cbr -e 556 -c 2 -a 0 -i 26 -k RTR 
- -t 15.200852582 -s 3 -d 4 -p cbr -e 556 -c 2 -a 0 -i 26 -k RTR
h -t 15.200852582 -s 3 -d 4 -p cbr -e 556 -c 2 -a 0 -i 26 -k RTR
+ -t 15.205064416 -s 3 -d 6 -p cbr -e 556 -c 2 -a 0 -i 24 -k RTR 
- -t 15.205064416 -s 3 -d 6 -p cbr -e 556 -c 2 -a 0 -i 24 -k RTR
h -t 15.205064416 -s 3 -d 6 -p cbr -e 556 -c 2 -a 0 -i 24 -k RTR
+ -t 15.211131083 -s 3 -d 6 -p cbr -e 556 -c 2 -a 0 -i 12 -k RTR 
- -t 15.211131083 -s 3 -d 6 -p cbr -e 556 -c 2 -a 0 -i 12 -k RTR
h -t 15.211131083 -s 3 -d 6 -p cbr -e 556 -c 2 -a 0 -i 12 -k RTR
+ -t 15.217257083 -s 4 -d 5 -p cbr -e 556 -c 2 -a 0 -i 26 -k RTR 
- -t 15.217257083 -s 4 -d 5 -p cbr -e 556 -c 2 -a 0 -i 26 -k RTR
h -t 15.217257083 -s 4 -d 5 -p cbr -e 556 -c 2 -a 0 -i 26 -k RTR
+ -t 15.223623083 -s 5 -d 2 -p cbr -e 556 -c 2 -a 0 -i 26 -k RTR 
- -t 15.223623083 -s 5 -d 2 -p cbr -e 556 -c 2 -a 0 -i 26 -k RTR
h -t 15.223623083 -s 5 -d 2 -p cbr -e 556 -c 2 -a 0 -i 26 -k RTR
r -t 15.229889083 -s 2 -d 2 -p cbr -e 512 -c 2 -a 0 -i 26 -k AGT
+ -t 15.236220573 -s 6 -d 7 -p cbr -e 556 -c 2 -a 0 -i 24 -k RTR 
- -t 15.236220573 -s 6 -d 7 -p cbr -e 556 -c 2 -a 0 -i 24 -k RTR
h -t 15.236220573 -s 6 -d 7 -p cbr -e 556 -c 2 -a 0 -i 24 -k RTR
+ -t 15.241253594 -s 1 -d -1 -p cbr -e 512 -c 2 -a 0 -i 27 -k AGT 
- -t 15.241253594 -s 1 -d -1 -p cbr -e 512 -c 2 -a 0 -i 27 -k AGT
h -t 15.241253594 -s 1 -d -1 -p cbr -e 512 -c 2 -a 0 -i 27 -k AGT
+ -t 15.241253594 -s 1 -d 4 -p cbr -e 556 -c 2 -a 0 -i 27 -k RTR 
- -t 15.241253594 -s 1 -d 4 -p cbr -e 556 -c 2 -a 0 -i 27 -k RTR
h -t 15.241253594 -s 1 -d 4 -p cbr -e 556 -c 2 -a 0 -i 27 -k RTR
r -t 15.242326573 -s 7 -d 7 -p cbr -e 512 -c 2 -a 0 -i 24 -k AGT
+ -t 15.248817516 -s 6 -d 7 -p cbr -e 556 -c 2 -a 0 -i 12 -k RTR 
- -t 15.248817516 -s 6 -d 7 -p cbr -e 556 -c 2 -a 0 -i 12 -k RTR
h -t 15.248817516 -s 6 -d 7 -p cbr -e 556 -c 2 -a 0 -i 12 -k RTR
r -t 15.255163516 -s 7 -d 7 -p cbr -e 512 -c 2 -a 0 -i 12 -k AGT
+ -t 15.261494849 -s 4 -d 7 -p cbr -e 556 -c 2 -a 0 -i 27 -k RTR 
- -t 15.261494849 -s 4 -d 7 -p cbr -e 556 -c 2 -a 0 -i 27 -k RTR
h -t 15.261494849 -s 4 -d 7 -p cbr -e 556 -c 2 -a 0 -i 27 -k RTR
+ -t 15.262546278 -s 0 -d -1 -p cbr -e 512 -c 2 -a 0 -i 28 -k AGT 
- -t 15.262546278 -s 0 -d -1 -p cbr -e 512 -c 2 -a 0 -i 28 -k AGT
h -t 15.262546278 -s 0 -d -1 -p cbr -e 512 -c 2 -a 0 -i 28 -k AGT
+ -t 15.262546278 -s 0 -d 3 -p cbr -e 532 -c 2 -a 0 -i 28 -k RTR 
- -t 15.262546278 -s 0 -d 3 -p cbr -e 532 -c 2 -a 0 -i 28 -k RTR
h -t 15.262546278 -s 0 -d 3 -p cbr -e 532 -c 2 -a 0 -i 28 -k RTR
+ -t 15.267820849 -s 7 -d 6 -p cbr -e 556 -c 2 -a 0 -i 27 -k RTR 
- -t 15.267820849 -s 7 -d 6 -p cbr -e 556 -c 2 -a 0 -i 27 -k RTR
h -t 15.267820849 -s 7 -d 6 -p cbr -e 556 -c 2 -a 0 -i 27 -k RTR
r -t 15.273826849 -s 6 -d 6 -p cbr -e 512 -c 2 -a 0 -i 27 -k AGT
+ -t 15.274624609 -s 3 -d -1 -p cbr -e 512 -c 2 -a 0 -i 29 -k AGT 
- -t 15.274624609 -s 3 -d -1 -p cbr -e 512 -c 2 -a 0 -i 29 -k AGT
h -t 15.274624609 -s 3 -d -1 -p cbr -e 512 -c 2 -a 0 -i 29 -k AGT
+ -t 15.274624609 -s 3 -d 4 -p cbr -e 532 -c 2 -a 0 -i 29 -k RTR 
- -t 15.274624609 -s 3 -d 4 -p cbr -e 532 -c 2 -a 0 -i 29 -k RTR
h -t 15.274624609 -s 3 -d 4 -p cbr -e 532 -c 2 -a 0 -i 29 -k RTR
+ -t 15.280026183 -s 3 -d 6 -p cbr -e 532 -c 2 -a 0 -i 28 -k RTR 
- -t 15.280026183 -s 3 -d 6 -p cbr -e 532 -c 2 -a 0 -i 28 -k RTR
h -t 15.280026183 -s 3 -d 6 -p cbr -e 532 -c 2 -a 0 -i 28 -k RTR
+ -t 15.285980183 -s 4 -d 5 -p cbr -e 532 -c 2 -a 0 -i 29 -k RTR 
- -t 15.285980183 -s 4 -d 5 -p cbr -e 532 -c 2 -a 0 -i 29 -k RTR
h -t 15.285980183 -s 4 -d 5 -p cbr -e 532 -c 2 -a 0 -i 29 -k RTR
+ -t 15.291874849 -s 6 -d 7 -p cbr -e 532 -c 2 -a 0 -i 28 -k RTR 
- -t 15.291874849 -s 6 -d 7 -p cbr -e 532 -c 2 -a 0 -i 28 -k RTR
h -t 15.291874849 -s 6 -d 7 -p cbr -e 532 -c 2 -a 0 -i 28 -k RTR
r -t 15.297968849 -s 7 -d 7 -p cbr -e 512 -c 2 -a 0 -i 28 -k AGT
+ -t 15.303753126 -s 5 -d 2 -p cbr -e 532 -c 2 -a 0 -i 29 -k RTR 
- -t 15.303753126 -s 5 -d 2 -p cbr -e 532 -c 2 -a 0 -i 29 -k RTR
h -t 15.303753126 -s 5 -d 2 -p cbr -e 532 -c 2 -a 0 -i 29 -k RTR
r -t 15.309567126 -s 2 -d 2 -p cbr -e 512 -c 2 -a 0 -i 29 -k AGT
+ -t 15.316708137 -s 0 -d -1 -p cbr -e 512 -c 2 -a 0 -i 30 -k AGT 
- -t 15.316708137 -s 0 -d -1 -p cbr -e 512 -c 2 -a 0 -i 30 -k AGT
h -t 15.316708137 -s 0 -d -1 -p cbr -e 512 -c 2 -a 0 -i 30 -k AGT
+ -t 15.316708137 -s 0 -d 3 -p cbr -e 532 -c 2 -a 0 -i 30 -k RTR 
- -t 15.316708137 -s 0 -d 3 -p cbr -e 532 -c 2 -a 0 -i 30 -k RTR
h -t 15.316708137 -s 0 -d 3 -p cbr -e 532 -c 2 -a 0 -i 30 -k RTR
+ -t 15.322758137 -s 3 -d 6 -p cbr -e 532 -c 2 -a 0 -i 30 -k RTR 
- -t 15.322758137 -s 3 -d 6 -p cbr -e 532 -c 2 -a 0 -i 30 -k RTR
h -t 15.322758137 -s 3 -d 6 -p cbr -e 532 -c 2 -a 0 -i 30 -k RTR
+ -t 15.329012137 -s 6 -d 7 -p cbr -e 532 -c 2 -a 0 -i 30 -k RTR 
- -t 15.329012137 -s 6 -d 7 -p cbr -e 532 -c 2 -a 0 -i 30 -k RTR
h -t 15.329012137 -s 6 -d 7 -p cbr -e 532 -c 2 -a 0 -i 30 -k RTR
r -t 15.335046137 -s 7 -d 7 -p cbr -e 512 -c 2 -a 0 -i 30 -k AGT
+ -t 15.336095710 -s 3 -d -1 -p cbr -e 512 -c 2 -a 0 -i 31 -k AGT 
- -t 15.336095710 -s 3 -d -1 -p cbr -e 512 -c 2 -a 0 -i 31 -k AGT
h -t 15.336095710 -s 3 -d -1 -p cbr -e 512 -c 2 -a 0 -i 31 -k AGT
+ -t 15.336095710 -s 3 -d 4 -p cbr -e 532 -c 2 -a 0 -i 31 -k RTR 
- -t 15.336095710 -s 3 -d 4 -p cbr -e 532 -c 2 -a 0 -i 31 -k RTR
h -t 15.336095710 -s 3 -d 4 -p cbr -e 532 -c 2 -a 0 -i 31 -k RTR
+ -t 15.341231951 -s 1 -d -1 -p cbr -e 512 -c 2 -a 0 -i 32 -k AGT 
- -t 15.341231951 -s 1 -d -1 -p cbr -e 512 -c 2 -a 0 -i 32 -k AGT
h -t 15.341231951 -s 1 -d -1 -p cbr -e 512 -c 2 -a 0 -i 32 -k AGT
+ -t 15.341231951 -s 1 -d 4 -p cbr -e 532 -c 2 -a 0 -i 32 -k RTR 
- -t 15.341231951 -s 1 -d 4 -p cbr -e 532 -c 2 -a 0 -i 32 -k RTR
h -t 15.341231951 -s 1 -d 4 -p cbr -e 532 -c 2 -a 0 -i 32 -k RTR
+ -t 15.342025710 -s 4 -d 5 -p cbr -e 532 -c 2 -a 0 -i 31 -k RTR 
- -t 15.342025710 -s 4 -d 5 -p cbr -e 532 -c 2 -a 0 -i 31 -k RTR
h -t 15.342025710 -s 4 -d 5 -p cbr -e 532 -c 2 -a 0 -i 31 -k RTR
+ -t 15.348109986 -s 4 -d 7 -p cbr -e 532 -c 2 -a 0 -i 32 -k RTR 
- -t 15.348109986 -s 4 -d 7 -p cbr -e 532 -c 2 -a 0 -i 32 -k RTR
h -t 15.348109986 -s 4 -d 7 -p cbr -e 532 -c 2 -a 0 -i 32 -k RTR
+ -t 15.354063986 -s 5 -d 2 -p cbr -e 532 -c 2 -a 0 -i 31 -k RTR 
- -t 15.354063986 -s 5 -d 2 -p cbr -e 532 -c 2 -a 0 -i 31 -k RTR
h -t 15.354063986 -s 5 -d 2 -p cbr -e 532 -c 2 -a 0 -i 31 -k RTR
r -t 15.359837986 -s 2 -d 2 -p cbr -e 512 -c 2 -a 0 -i 31 -k AGT
+ -t 15.366276929 -s 7 -d 6 -p cbr -e 532 -c 2 -a 0 -i 32 -k RTR 
- -t 15.366276929 -s 7 -d 6 -p cbr -e 532 -c 2 -a 0 -i 32 -k RTR
h -t 15.366276929 -s 7 -d 6 -p cbr -e 532 -c 2 -a 0 -i 32 -k RTR
r -t 15.372050929 -s 6 -d 6 -p cbr -e 512 -c 2 -a 0 -i 32 -k AGT
+ -t 15.389729044 -s 0 -d -1 -p cbr -e 512 -c 2 -a 0 -i 33 -k AGT 
- -t 15.389729044 -s 0 -d -1 -p cbr -e 512 -c 2 -a 0 -i 33 -k AGT
h -t 15.389729044 -s 0 -d -1 -p cbr -e 512 -c 2 -a 0 -i 33 -k AGT
+ -t 15.389729044 -s 0 -d 3 -p cbr -e 532 -c 2 -a 0 -i 33 -k RTR 
- -t 15.389729044 -s 0 -d 3 -p cbr -e 532 -c 2 -a 0 -i 33 -k RTR
h -t 15.389729044 -s 0 -d 3 -p cbr -e 532 -c 2 -a 0 -i 33 -k RTR
+ -t 15.395179044 -s 3 -d 6 -p cbr -e 532 -c 2 -a 0 -i 33 -k RTR 
- -t 15.395179044 -s 3 -d 6 -p cbr -e 532 -c 2 -a 0 -i 33 -k RTR
h -t 15.395179044 -s 3 -d 6 -p cbr -e 532 -c 2 -a 0 -i 33 -k RTR
+ -t 15.401093044 -s 6 -d 7 -p cbr -e 532 -c 2 -a 0 -i 33 -k RTR 
- -t 15.401093044 -s 6 -d 7 -p cbr -e 532 -c 2 -a 0 -i 33 -k RTR
h -t 15.401093044 -s 6 -d 7 -p cbr -e 532 -c 2 -a 0 -i 33 -k RTR
r -t 15.406907044 -s 7 -d 7 -p cbr -e 512 -c 2 -a 0 -i 33 -k AGT
+ -t 15.435174035 -s 1 -d -1 -p cbr -e 512 -c 2 -a 0 -i 34 -k AGT 
- -t 15.435174035 -s 1 -d -1 -p cbr -e 512 -c 2 -a 0 -i 34 -k AGT
h -t 15.435174035 -s 1 -d -1 -p cbr -e 512 -c 2 -a 0 -i 34 -k AGT
+ -t 15.435174035 -s 1 -d 4 -p cbr -e 532 -c 2 -a 0 -i 34 -k RTR 
- -t 15.435174035 -s 1 -d 4 -p cbr -e 532 -c 2 -a 0 -i 34 -k RTR
h -t 15.435174035 -s 1 -d 4 -p cbr -e 532 -c 2 -a 0 -i 34 -k RTR
+ -t 15.436754055 -s 3 -d -1 -p cbr -e 512 -c 2 -a 0 -i 35 -k AGT 
- -t 15.436754055 -s 3 -d -1 -p cbr -e 512 -c 2 -a 0 -i 35 -k AGT
h -t 15.436754055 -s 3 -d -1 -p cbr -e 512 -c 2 -a 0 -i 35 -k AGT
+ -t 15.436754055 -s 3 -d 4 -p cbr -e 532 -c 2 -a 0 -i 35 -k RTR 
- -t 15.436754055 -s 3 -d 4 -p cbr -e 532 -c 2 -a 0 -i 35 -k RTR
h -t 15.436754055 -s 3 -d 4 -p cbr -e 532 -c 2 -a 0 -i 35 -k RTR
+ -t 15.440944035 -s 4 -d 7 -p cbr -e 532 -c 2 -a 0 -i 34 -k RTR 
- -t 15.440944035 -s 4 -d 7 -p cbr -e 532 -c 2 -a 0 -i 34 -k RTR
h -t 15.440944035 -s 4 -d 7 -p cbr -e 532 -c 2 -a 0 -i 34 -k RTR
+ -t 15.445706230 -s 0 -d -1 -p cbr -e 512 -c 2 -a 0 -i 36 -k AGT 
- -t 15.445706230 -s 0 -d -1 -p cbr -e 512 -c 2 -a 0 -i 36 -k AGT
h -t 15.445706230 -s 0 -d -1 -p cbr -e 512 -c 2 -a 0 -i 36 -k AGT
+ -t 15.445706230 -s 0 -d 3 -p cbr -e 532 -c 2 -a 0 -i 36 -k RTR 
- -t 15.445706230 -s 0 -d 3 -p cbr -e 532 -c 2 -a 0 -i 36 -k RTR
h -t 15.445706230 -s 0 -d 3 -p cbr -e 532 -c 2 -a 0 -i 36 -k RTR
+ -t 15.446888311 -s 4 -d 5 -p cbr -e 532 -c 2 -a 0 -i 35 -k RTR 
- -t 15.446888311 -s 4 -d 5 -p cbr -e 532 -c 2 -a 0 -i 35 -k RTR
h -t 15.446888311 -s 4 -d 5 -p cbr -e 532 -c 2 -a 0 -i 35 -k RTR
+ -t 15.452782311 -s 7 -d 6 -p cbr -e 532 -c 2 -a 0 -i 34 -k RTR 
- -t 15.452782311 -s 7 -d 6 -p cbr -e 532 -c 2 -a 0 -i 34 -k RTR
h -t 15.452782311 -s 7 -d 6 -p cbr -e 532 -c 2 -a 0 -i 34 -k RTR
r -t 15.458596311 -s 6 -d 6 -p cbr -e 512 -c 2 -a 0 -i 34 -k AGT
+ -t 15.464735645 -s 3 -d 6 -p cbr -e 532 -c 2 -a 0 -i 36 -k RTR 
- -t 15.464735645 -s 3 -d 6 -p cbr -e 532 -c 2 -a 0 -i 36 -k RTR
h -t 15.464735645 -s 3 -d 6 -p cbr -e 532 -c 2 -a 0 -i 36 -k RTR
+ -t 15.470679921 -s 5 -d 2 -p cbr -e 532 -c 2 -a 0 -i 35 -k RTR 
- -t 15.470679921 -s 5 -d 2 -p cbr -e 532 -c 2 -a 0 -i 35 -k RTR
h -t 15.470679921 -s 5 -d 2 -p cbr -e 532 -c 2 -a 0 -i 35 -k RTR
r -t 15.476713921 -s 2 -d 2 -p cbr -e 512 -c 2 -a 0 -i 35 -k AGT
+ -t 15.483053412 -s 6 -d 7 -p cbr -e 532 -c 2 -a 0 -i 36 -k RTR 
- -t 15.483053412 -s 6 -d 7 -p cbr -e 532 -c 2 -a 0 -i 36 -k RTR
h -t 15.483053412 -s 6 -d 7 -p cbr -e 532 -c 2 -a 0 -i 36 -k RTR
r -t 15.489227412 -s 7 -d 7 -p cbr -e 512 -c 2 -a 0 -i 36 -k AGT
+ -t 15.502774319 -s 1 -d -1 -p cbr -e 512 -c 2 -a 0 -i 37 -k AGT 
- -t 15.502774319 -s 1 -d -1 -p cbr -e 512 -c 2 -a 0 -i 37 -k AGT
h -t 15.502774319 -s 1 -d -1 -p cbr -e 512 -c 2 -a 0 -i 37 -k AGT
+ -t 15.502774319 -s 1 -d 4 -p cbr -e 532 -c 2 -a 0 -i 37 -k RTR 
- -t 15.502774319 -s 1 -d 4 -p cbr -e 532 -c 2 -a 0 -i 37 -k RTR
h -t 15.502774319 -s 1 -d 4 -p cbr -e 532 -c 2 -a 0 -i 37 -k RTR
+ -t 15.508244319 -s 4 -d 7 -p cbr -e 532 -c 2 -a 0 -i 37 -k RTR 
- -t 15.508244319 -s 4 -d 7 -p cbr -e 532 -c 2 -a 0 -i 37 -k RTR
h -t 15.508244319 -s 4 -d 7 -p cbr -e 532 -c 2 -a 0 -i 37 -k RTR
+ -t 15.514378319 -s 7 -d 6 -p cbr -e 532 -c 2 -a 0 -i 37 -k RTR 
- -t 15.514378319 -s 7 -d 6 -p cbr -e 532 -c 2 -a 0 -i 37 -k RTR
h -t 15.514378319 -s 7 -d 6 -p cbr -e 532 -c 2 -a 0 -i 37 -k RTR
r -t 15.520472319 -s 6 -d 6 -p cbr -e 512 -c 2 -a 0 -i 37 -k AGT
+ -t 15.526828501 -s 3 -d -1 -p cbr -e 512 -c 2 -a 0 -i 38 -k AGT 
- -t 15.526828501 -s 3 -d -1 -p cbr -e 512 -c 2 -a 0 -i 38 -k AGT
h -t 15.526828501 -s 3 -d -1 -p cbr -e 512 -c 2 -a 0 -i 38 -k AGT
+ -t 15.526828501 -s 3 -d 4 -p cbr -e 532 -c 2 -a 0 -i 38 -k RTR 
- -t 15.526828501 -s 3 -d 4 -p cbr -e 532 -c 2 -a 0 -i 38 -k RTR
h -t 15.526828501 -s 3 -d 4 -p cbr -e 532 -c 2 -a 0 -i 38 -k RTR
+ -t 15.532618501 -s 4 -d 5 -p cbr -e 532 -c 2 -a 0 -i 38 -k RTR 
- -t 15.532618501 -s 4 -d 5 -p cbr -e 532 -c 2 -a 0 -i 38 -k RTR
h -t 15.532618501 -s 4 -d 5 -p cbr -e 532 -c 2 -a 0 -i 38 -k RTR
+ -t 15.538752501 -s 5 -d 2 -p cbr -e 532 -c 2 -a 0 -i 38 -k RTR 
- -t 15.538752501 -s 5 -d 2 -p cbr -e 532 -c 2 -a 0 -i 38 -k RTR
h -t 15.538752501 -s 5 -d 2 -p cbr -e 532 -c 2 -a 0 -i 38 -k RTR
r -t 15.544766501 -s 2 -d 2 -p cbr -e 512 -c 2 -a 0 -i 38 -k AGT
+ -t 15.561281618 -s 0 -d -1 -p cbr -e 512 -c 2 -a 0 -i 39 -k AGT 
- -t 15.561281618 -s 0 -d -1 -p cbr -e 512 -c 2 -a 0 -i 39 -k AGT
h -t 15.561281618 -s 0 -d -1 -p cbr -e 512 -c 2 -a 0 -i 39 -k AGT
+ -t 15.561281618 -s 0 -d 3 -p cbr -e 532 -c 2 -a 0 -i 39 -k RTR 
- -t 15.561281618 -s 0 -d 3 -p cbr -e 532 -c 2 -a 0 -i 39 -k RTR
h -t 15.561281618 -s 0 -d 3 -p cbr -e 532 -c 2 -a 0 -i 39 -k RTR
+ -t 15.567031618 -s 3 -d 6 -p cbr -e 532 -c 2 -a 0 -i 39 -k RTR 
- -t 15.567031618 -s 3 -d 6 -p cbr -e 532 -c 2 -a 0 -i 39 -k RTR
h -t 15.567031618 -s 3 -d 6 -p cbr -e 532 -c 2 -a 0 -i 39 -k RTR
+ -t 15.573125618 -s 6 -d 7 -p cbr -e 532 -c 2 -a 0 -i 39 -k RTR 
- -t 15.573125618 -s 6 -d 7 -p cbr -e 532 -c 2 -a 0 -i 39 -k RTR
h -t 15.573125618 -s 6 -d 7 -p cbr -e 532 -c 2 -a 0 -i 39 -k RTR
r -t 15.579239618 -s 7 -d 7 -p cbr -e 512 -c 2 -a 0 -i 39 -k AGT
+ -t 15.621324806 -s 1 -d -1 -p cbr -e 512 -c 2 -a 0 -i 40 -k AGT 
- -t 15.621324806 -s 1 -d -1 -p cbr -e 512 -c 2 -a 0 -i 40 -k AGT
h -t 15.621324806 -s 1 -d -1 -p cbr -e 512 -c 2 -a 0 -i 40 -k AGT
+ -t 15.621324806 -s 1 -d 4 -p cbr -e 532 -c 2 -a 0 -i 40 -k RTR 
- -t 15.621324806 -s 1 -d 4 -p cbr -e 532 -c 2 -a 0 -i 40 -k RTR
h -t 15.621324806 -s 1 -d 4 -p cbr -e 532 -c 2 -a 0 -i 40 -k RTR
+ -t 15.627334806 -s 4 -d 7 -p cbr -e 532 -c 2 -a 0 -i 40 -k RTR 
- -t 15.627334806 -s 4 -d 7 -p cbr -e 532 -c 2 -a 0 -i 40 -k RTR
h -t 15.627334806 -s 4 -d 7 -p cbr -e 532 -c 2 -a 0 -i 40 -k RTR
+ -t 15.631439299 -s 0 -d -1 -p cbr -e 512 -c 2 -a 0 -i 41 -k AGT 
- -t 15.631439299 -s 0 -d -1 -p cbr -e 512 -c 2 -a 0 -i 41 -k AGT
h -t 15.631439299 -s 0 -d -1 -p cbr -e 512 -c 2 -a 0 -i 41 -k AGT
+ -t 15.631439299 -s 0 -d 3 -p cbr -e 532 -c 2 -a 0 -i 41 -k RTR 
- -t 15.631439299 -s 0 -d 3 -p cbr -e 532 -c 2 -a 0 -i 41 -k RTR
h -t 15.631439299 -s 0 -d 3 -p cbr -e 532 -c 2 -a 0 -i 41 -k RTR
+ -t 15.633548806 -s 7 -d 6 -p cbr -e 532 -c 2 -a 0 -i 40 -k RTR 
- -t 15.633548806 -s 7 -d 6 -p cbr -e 532 -c 2 -a 0 -i 40 -k RTR
h -t 15.633548806 -s 7 -d 6 -p cbr -e 532 -c 2 -a 0 -i 40 -k RTR
r -t 15.639822806 -s 6 -d 6 -p cbr -e 512 -c 2 -a 0 -i 40 -k AGT
+ -t 15.646322139 -s 3 -d 6 -p cbr -e 532 -c 2 -a 0 -i 41 -k RTR 
- -t 15.646322139 -s 3 -d 6 -p cbr -e 532 -c 2 -a 0 -i 41 -k RTR
h -t 15.646322139 -s 3 -d 6 -p cbr -e 532 -c 2 -a 0 -i 41 -k RTR
+ -t 15.650654867 -s 3 -d -1 -p cbr -e 512 -c 2 -a 0 -i 42 -k AGT 
- -t 15.650654867 -s 3 -d -1 -p cbr -e 512 -c 2 -a 0 -i 42 -k AGT
h -t 15.650654867 -s 3 -d -1 -p cbr -e 512 -c 2 -a 0 -i 42 -k AGT
+ -t 15.650654867 -s 3 -d 4 -p cbr -e 532 -c 2 -a 0 -i 42 -k RTR 
- -t 15.650654867 -s 3 -d 4 -p cbr -e 532 -c 2 -a 0 -i 42 -k RTR
h -t 15.650654867 -s 3 -d 4 -p cbr -e 532 -c 2 -a 0 -i 42 -k RTR
+ -t 15.652616139 -s 6 -d 7 -p cbr -e 532 -c 2 -a 0 -i 41 -k RTR 
- -t 15.652616139 -s 6 -d 7 -p cbr -e 532 -c 2 -a 0 -i 41 -k RTR
h -t 15.652616139 -s 6 -d 7 -p cbr -e 532 -c 2 -a 0 -i 41 -k RTR
+ -t 15.658390806 -s 4 -d 5 -p cbr -e 532 -c 2 -a 0 -i 42 -k RTR 
- -t 15.658390806 -s 4 -d 5 -p cbr -e 532 -c 2 -a 0 -i 42 -k RTR
h -t 15.658390806 -s 4 -d 5 -p cbr -e 532 -c 2 -a 0 -i 42 -k RTR
r -t 15.664509749 -s 7 -d 7 -p cbr -e 512 -c 2 -a 0 -i 41 -k AGT
+ -t 15.670374025 -s 5 -d 2 -p cbr -e 532 -c 2 -a 0 -i 42 -k RTR 
- -t 15.670374025 -s 5 -d 2 -p cbr -e 532 -c 2 -a 0 -i 42 -k RTR
h -t 15.670374025 -s 5 -d 2 -p cbr -e 532 -c 2 -a 0 -i 42 -k RTR
r -t 15.676348025 -s 2 -d 2 -p cbr -e 512 -c 2 -a 0 -i 42 -k AGT
+ -t 15.683362078 -s 0 -d -1 -p cbr -e 512 -c 2 -a 0 -i 43 -k AGT 
- -t 15.683362078 -s 0 -d -1 -p cbr -e 512 -c 2 -a 0 -i 43 -k AGT
h -t 15.683362078 -s 0 -d -1 -p cbr -e 512 -c 2 -a 0 -i 43 -k AGT