n -t * -s 0  -x 100 -y 0 -Z 0 -z 30  -v circle -c black
n -t * -s 1  -x 300 -y 0 -Z 0 -z 30  -v circle -c black
n -t * -s 2  -x 500 -y 0 -Z 0 -z 30  -v circle -c black
n -t * -s 3  -x 100 -y 100 -Z 0 -z 30  -v circle -c black
n -t * -s 4  -x 300 -y 100 -Z 0 -z 30  -v circle -c black
n -t * -s 5  -x 500 -y 100 -Z 0 -z 30  -v circle -c black
n -t * -s 6  -x 100 -y 200 -Z 0 -z 30  -v circle -c black
n -t * -s 7  -x 300 -y 200 -Z 0 -z 30  -v circle -c black
n -t * -s 8  -x 500 -y 200 -Z 0 -z 30  -v circle -c black
n -t * -s 9  -x 100 -y 300 -Z 0 -z 30  -v circle -c black
n -t * -s 10  -x 300 -y 300 -Z 0 -z 30  -v circle -c black
n -t * -s 11  -x 500 -y 300 -Z 0 -z 30  -v circle -c black
n -t * -s 12  -x 100 -y 400 -Z 0 -z 30  -v circle -c black
n -t * -s 13  -x 300 -y 400 -Z 0 -z 30  -v circle -c black
n -t * -s 14  -x 500 -y 400 -Z 0 -z 30  -v circle -c black
n -t * -s 15  -x 100 -y 500 -Z 0 -z 30  -v circle -c black
n -t * -s 16  -x 300 -y 500 -Z 0 -z 30  -v circle -c black
n -t * -s 17  -x 500 -y 500 -Z 0 -z 30  -v circle -c black
n -t * -s 18  -x 400 -y 500 -Z 0 -z 30  -v circle -c black
n -t * -s 19  -x 200 -y 500 -Z 0 -z 30  -v circle -c black
n -t * -s 20  -x 400 -y 400 -Z 0 -z 30  -v circle -c black
n -t * -s 21  -x 200 -y 400 -Z 0 -z 30  -v circle -c black
n -t * -s 22  -x 400 -y 300 -Z 0 -z 30  -v circle -c black
n -t * -s 23  -x 200 -y 300 -Z 0 -z 30  -v circle -c black
n -t * -s 24  -x 400 -y 200 -Z 0 -z 30  -v circle -c black
n -t * -s 25  -x 200 -y 200 -Z 0 -z 30  -v circle -c black
V -t * -v 1.0a5 -a 0
W -t * -x 500 -y 500
A -t * -n 1 -p 0 -o 0xffffffff -c 31 -a 1
A -t * -h 1 -m 2147483647 -s 0
+ -t 15.000000000 -s 0 -d -1 -p cbr -e 512 -c 2 -a 0 -i 0 -k AGT 
- -t 15.000000000 -s 0 -d -1 -p cbr -e 512 -c 2 -a 0 -i 0 -k AGT
h -t 15.000000000 -s 0 -d -1 -p cbr -e 512 -c 2 -a 0 -i 0 -k AGT
+ -t 15.007567781 -s 0 -d -1 -p DSR -e 32 -c 2 -a 0 -i 1 -k RTR 
- -t 15.007567781 -s 0 -d -1 -p DSR -e 32 -c 2 -a 0 -i 1 -k RTR
h -t 15.007567781 -s 0 -d -1 -p DSR -e 32 -c 2 -a 0 -i 1 -k RTR
+ -t 15.061375299 -s 0 -d -1 -p DSR -e 32 -c 2 -a 0 -i 3 -k RTR 
- -t 15.061375299 -s 0 -d -1 -p DSR -e 32 -c 2 -a 0 -i 3 -k RTR
h -t 15.061375299 -s 0 -d -1 -p DSR -e 32 -c 2 -a 0 -i 3 -k RTR
+ -t 15.063118762 -s 6 -d -1 -p DSR -e 48 -c 2 -a 0 -i 3 -k RTR 
- -t 15.063118762 -s 6 -d -1 -p DSR -e 48 -c 2 -a 0 -i 3 -k RTR
h -t 15.063118762 -s 6 -d -1 -p DSR -e 48 -c 2 -a 0 -i 3 -k RTR
+ -t 15.063351504 -s 25 -d -1 -p DSR -e 48 -c 2 -a 0 -i 3 -k RTR 
- -t 15.063351504 -s 25 -d -1 -p DSR -e 48 -c 2 -a 0 -i 3 -k RTR
h -t 15.063351504 -s 25 -d -1 -p DSR -e 48 -c 2 -a 0 -i 3 -k RTR
+ -t 15.064573421 -s 7 -d -1 -p DSR -e 68 -c 2 -a 0 -i 3 -k RTR 
- -t 15.064573421 -s 7 -d -1 -p DSR -e 68 -c 2 -a 0 -i 3 -k RTR
h -t 15.064573421 -s 7 -d -1 -p DSR -e 68 -c 2 -a 0 -i 3 -k RTR
+ -t 15.064663859 -s 9 -d -1 -p DSR -e 68 -c 2 -a 0 -i 3 -k RTR 
- -t 15.064663859 -s 9 -d -1 -p DSR -e 68 -c 2 -a 0 -i 3 -k RTR
h -t 15.064663859 -s 9 -d -1 -p DSR -e 68 -c 2 -a 0 -i 3 -k RTR
+ -t 15.067235867 -s 1 -d -1 -p DSR -e 48 -c 2 -a 0 -i 3 -k RTR 
- -t 15.067235867 -s 1 -d -1 -p DSR -e 48 -c 2 -a 0 -i 3 -k RTR
h -t 15.067235867 -s 1 -d -1 -p DSR -e 48 -c 2 -a 0 -i 3 -k RTR
+ -t 15.067516038 -s 10 -d -1 -p DSR -e 68 -c 2 -a 0 -i 3 -k RTR 
- -t 15.067516038 -s 10 -d -1 -p DSR -e 68 -c 2 -a 0 -i 3 -k RTR
h -t 15.067516038 -s 10 -d -1 -p DSR -e 68 -c 2 -a 0 -i 3 -k RTR
+ -t 15.067778312 -s 15 -d -1 -p DSR -e 92 -c 2 -a 0 -i 3 -k RTR 
- -t 15.067778312 -s 15 -d -1 -p DSR -e 92 -c 2 -a 0 -i 3 -k RTR
h -t 15.067778312 -s 15 -d -1 -p DSR -e 92 -c 2 -a 0 -i 3 -k RTR
+ -t 15.068486347 -s 23 -d -1 -p DSR -e 68 -c 2 -a 0 -i 3 -k RTR 
- -t 15.068486347 -s 23 -d -1 -p DSR -e 68 -c 2 -a 0 -i 3 -k RTR
h -t 15.068486347 -s 23 -d -1 -p DSR -e 68 -c 2 -a 0 -i 3 -k RTR
+ -t 15.069326493 -s 24 -d -1 -p DSR -e 68 -c 2 -a 0 -i 3 -k RTR 
- -t 15.069326493 -s 24 -d -1 -p DSR -e 68 -c 2 -a 0 -i 3 -k RTR
h -t 15.069326493 -s 24 -d -1 -p DSR -e 68 -c 2 -a 0 -i 3 -k RTR
+ -t 15.069333749 -s 13 -d -1 -p DSR -e 68 -c 2 -a 0 -i 3 -k RTR 
- -t 15.069333749 -s 13 -d -1 -p DSR -e 68 -c 2 -a 0 -i 3 -k RTR
h -t 15.069333749 -s 13 -d -1 -p DSR -e 68 -c 2 -a 0 -i 3 -k RTR
+ -t 15.070087710 -s 22 -d -1 -p DSR -e 68 -c 2 -a 0 -i 3 -k RTR 
- -t 15.070087710 -s 22 -d -1 -p DSR -e 68 -c 2 -a 0 -i 3 -k RTR
h -t 15.070087710 -s 22 -d -1 -p DSR -e 68 -c 2 -a 0 -i 3 -k RTR
+ -t 15.070249697 -s 0 -d -1 -p cbr -e 512 -c 2 -a 0 -i 6 -k AGT 
- -t 15.070249697 -s 0 -d -1 -p cbr -e 512 -c 2 -a 0 -i 6 -k AGT
h -t 15.070249697 -s 0 -d -1 -p cbr -e 512 -c 2 -a 0 -i 6 -k AGT
+ -t 15.070285337 -s 12 -d -1 -p DSR -e 68 -c 2 -a 0 -i 3 -k RTR 
- -t 15.070285337 -s 12 -d -1 -p DSR -e 68 -c 2 -a 0 -i 3 -k RTR
h -t 15.070285337 -s 12 -d -1 -p DSR -e 68 -c 2 -a 0 -i 3 -k RTR
+ -t 15.070771628 -s 19 -d -1 -p DSR -e 92 -c 2 -a 0 -i 3 -k RTR 
- -t 15.070771628 -s 19 -d -1 -p DSR -e 92 -c 2 -a 0 -i 3 -k RTR
h -t 15.070771628 -s 19 -d -1 -p DSR -e 92 -c 2 -a 0 -i 3 -k RTR
+ -t 15.070985036 -s 20 -d -1 -p DSR -e 92 -c 2 -a 0 -i 3 -k RTR 
- -t 15.070985036 -s 20 -d -1 -p DSR -e 92 -c 2 -a 0 -i 3 -k RTR
h -t 15.070985036 -s 20 -d -1 -p DSR -e 92 -c 2 -a 0 -i 3 -k RTR
+ -t 15.071020588 -s 4 -d -1 -p DSR -e 48 -c 2 -a 0 -i 3 -k RTR 
- -t 15.071020588 -s 4 -d -1 -p DSR -e 48 -c 2 -a 0 -i 3 -k RTR
h -t 15.071020588 -s 4 -d -1 -p DSR -e 48 -c 2 -a 0 -i 3 -k RTR
+ -t 15.071676455 -s 3 -d -1 -p DSR -e 48 -c 2 -a 0 -i 3 -k RTR 
- -t 15.071676455 -s 3 -d -1 -p DSR -e 48 -c 2 -a 0 -i 3 -k RTR
h -t 15.071676455 -s 3 -d -1 -p DSR -e 48 -c 2 -a 0 -i 3 -k RTR
+ -t 15.071893413 -s 11 -d -1 -p DSR -e 92 -c 2 -a 0 -i 3 -k RTR 
- -t 15.071893413 -s 11 -d -1 -p DSR -e 92 -c 2 -a 0 -i 3 -k RTR
h -t 15.071893413 -s 11 -d -1 -p DSR -e 92 -c 2 -a 0 -i 3 -k RTR
+ -t 15.072379582 -s 21 -d -1 -p DSR -e 68 -c 2 -a 0 -i 3 -k RTR 
- -t 15.072379582 -s 21 -d -1 -p DSR -e 68 -c 2 -a 0 -i 3 -k RTR
h -t 15.072379582 -s 21 -d -1 -p DSR -e 68 -c 2 -a 0 -i 3 -k RTR
+ -t 15.072913421 -s 16 -d 23 -p DSR -e 60 -c 2 -a 0 -i 5 -k RTR 
- -t 15.072913421 -s 16 -d 23 -p DSR -e 60 -c 2 -a 0 -i 5 -k RTR
h -t 15.072913421 -s 16 -d 23 -p DSR -e 60 -c 2 -a 0 -i 5 -k RTR
+ -t 15.074382567 -s 16 -d 10 -p DSR -e 60 -c 2 -a 0 -i 4 -k RTR 
- -t 15.074382567 -s 16 -d 10 -p DSR -e 60 -c 2 -a 0 -i 4 -k RTR
h -t 15.074382567 -s 16 -d 10 -p DSR -e 60 -c 2 -a 0 -i 4 -k RTR
+ -t 15.074689075 -s 14 -d -1 -p DSR -e 92 -c 2 -a 0 -i 3 -k RTR 
- -t 15.074689075 -s 14 -d -1 -p DSR -e 92 -c 2 -a 0 -i 3 -k RTR
h -t 15.074689075 -s 14 -d -1 -p DSR -e 92 -c 2 -a 0 -i 3 -k RTR
+ -t 15.074781654 -s 17 -d -1 -p DSR -e 92 -c 2 -a 0 -i 3 -k RTR 
- -t 15.074781654 -s 17 -d -1 -p DSR -e 92 -c 2 -a 0 -i 3 -k RTR
h -t 15.074781654 -s 17 -d -1 -p DSR -e 92 -c 2 -a 0 -i 3 -k RTR
+ -t 15.075130083 -s 8 -d -1 -p DSR -e 92 -c 2 -a 0 -i 3 -k RTR 
- -t 15.075130083 -s 8 -d -1 -p DSR -e 92 -c 2 -a 0 -i 3 -k RTR
h -t 15.075130083 -s 8 -d -1 -p DSR -e 92 -c 2 -a 0 -i 3 -k RTR
+ -t 15.075380638 -s 16 -d 13 -p DSR -e 60 -c 2 -a 0 -i 8 -k RTR 
- -t 15.075380638 -s 16 -d 13 -p DSR -e 60 -c 2 -a 0 -i 8 -k RTR
h -t 15.075380638 -s 16 -d 13 -p DSR -e 60 -c 2 -a 0 -i 8 -k RTR
+ -t 15.076548562 -s 5 -d -1 -p DSR -e 92 -c 2 -a 0 -i 3 -k RTR 
- -t 15.076548562 -s 5 -d -1 -p DSR -e 92 -c 2 -a 0 -i 3 -k RTR
h -t 15.076548562 -s 5 -d -1 -p DSR -e 92 -c 2 -a 0 -i 3 -k RTR
+ -t 15.078712376 -s 18 -d -1 -p DSR -e 92 -c 2 -a 0 -i 3 -k RTR 
- -t 15.078712376 -s 18 -d -1 -p DSR -e 92 -c 2 -a 0 -i 3 -k RTR
h -t 15.078712376 -s 18 -d -1 -p DSR -e 92 -c 2 -a 0 -i 3 -k RTR
+ -t 15.078995610 -s 16 -d 22 -p DSR -e 60 -c 2 -a 0 -i 9 -k RTR 
- -t 15.078995610 -s 16 -d 22 -p DSR -e 60 -c 2 -a 0 -i 9 -k RTR
h -t 15.078995610 -s 16 -d 22 -p DSR -e 60 -c 2 -a 0 -i 9 -k RTR
+ -t 15.082385763 -s 2 -d -1 -p DSR -e 92 -c 2 -a 0 -i 3 -k RTR 
- -t 15.082385763 -s 2 -d -1 -p DSR -e 92 -c 2 -a 0 -i 3 -k RTR
h -t 15.082385763 -s 2 -d -1 -p DSR -e 92 -c 2 -a 0 -i 3 -k RTR
+ -t 15.083347964 -s 16 -d 19 -p DSR -e 68 -c 2 -a 0 -i 11 -k RTR 
- -t 15.083347964 -s 16 -d 19 -p DSR -e 68 -c 2 -a 0 -i 11 -k RTR
h -t 15.083347964 -s 16 -d 19 -p DSR -e 68 -c 2 -a 0 -i 11 -k RTR
+ -t 15.084666689 -s 16 -d 20 -p DSR -e 68 -c 2 -a 0 -i 10 -k RTR 
- -t 15.084666689 -s 16 -d 20 -p DSR -e 68 -c 2 -a 0 -i 10 -k RTR
h -t 15.084666689 -s 16 -d 20 -p DSR -e 68 -c 2 -a 0 -i 10 -k RTR
+ -t 15.088726672 -s 16 -d 12 -p DSR -e 60 -c 2 -a 0 -i 14 -k RTR 
- -t 15.088726672 -s 16 -d 12 -p DSR -e 60 -c 2 -a 0 -i 14 -k RTR
h -t 15.088726672 -s 16 -d 12 -p DSR -e 60 -c 2 -a 0 -i 14 -k RTR
+ -t 15.088846604 -s 16 -d 18 -p DSR -e 68 -c 2 -a 0 -i 12 -k RTR 
- -t 15.088846604 -s 16 -d 18 -p DSR -e 68 -c 2 -a 0 -i 12 -k RTR
h -t 15.088846604 -s 16 -d 18 -p DSR -e 68 -c 2 -a 0 -i 12 -k RTR
+ -t 15.089619643 -s 23 -d 6 -p DSR -e 60 -c 2 -a 0 -i 5 -k RTR 
- -t 15.089619643 -s 23 -d 6 -p DSR -e 60 -c 2 -a 0 -i 5 -k RTR
h -t 15.089619643 -s 23 -d 6 -p DSR -e 60 -c 2 -a 0 -i 5 -k RTR
+ -t 15.090849180 -s 16 -d 14 -p DSR -e 68 -c 2 -a 0 -i 13 -k RTR 
- -t 15.090849180 -s 16 -d 14 -p DSR -e 68 -c 2 -a 0 -i 13 -k RTR
h -t 15.090849180 -s 16 -d 14 -p DSR -e 68 -c 2 -a 0 -i 13 -k RTR
+ -t 15.092911448 -s 18 -d 10 -p DSR -e 68 -c 2 -a 0 -i 12 -k RTR 
- -t 15.092911448 -s 18 -d 10 -p DSR -e 68 -c 2 -a 0 -i 12 -k RTR
h -t 15.092911448 -s 18 -d 10 -p DSR -e 68 -c 2 -a 0 -i 12 -k RTR
+ -t 15.094169898 -s 16 -d 21 -p DSR -e 60 -c 2 -a 0 -i 15 -k RTR 
- -t 15.094169898 -s 16 -d 21 -p DSR -e 60 -c 2 -a 0 -i 15 -k RTR
h -t 15.094169898 -s 16 -d 21 -p DSR -e 60 -c 2 -a 0 -i 15 -k RTR
+ -t 15.095193684 -s 10 -d 6 -p DSR -e 68 -c 2 -a 0 -i 12 -k RTR 
- -t 15.095193684 -s 10 -d 6 -p DSR -e 68 -c 2 -a 0 -i 12 -k RTR
h -t 15.095193684 -s 10 -d 6 -p DSR -e 68 -c 2 -a 0 -i 12 -k RTR
+ -t 15.097216587 -s 14 -d 10 -p DSR -e 68 -c 2 -a 0 -i 13 -k RTR 
- -t 15.097216587 -s 14 -d 10 -p DSR -e 68 -c 2 -a 0 -i 13 -k RTR
h -t 15.097216587 -s 14 -d 10 -p DSR -e 68 -c 2 -a 0 -i 13 -k RTR
+ -t 15.099259568 -s 6 -d 0 -p DSR -e 68 -c 2 -a 0 -i 12 -k RTR 
- -t 15.099259568 -s 6 -d 0 -p DSR -e 68 -c 2 -a 0 -i 12 -k RTR
h -t 15.099259568 -s 6 -d 0 -p DSR -e 68 -c 2 -a 0 -i 12 -k RTR
+ -t 15.101437454 -s 6 -d 0 -p DSR -e 60 -c 2 -a 0 -i 5 -k RTR 
- -t 15.101437454 -s 6 -d 0 -p DSR -e 60 -c 2 -a 0 -i 5 -k RTR
h -t 15.101437454 -s 6 -d 0 -p DSR -e 60 -c 2 -a 0 -i 5 -k RTR
+ -t 15.103459454 -s 0 -d 6 -p cbr -e 560 -c 2 -a 0 -i 0 -k RTR 
- -t 15.103459454 -s 0 -d 6 -p cbr -e 560 -c 2 -a 0 -i 0 -k RTR
h -t 15.103459454 -s 0 -d 6 -p cbr -e 560 -c 2 -a 0 -i 0 -k RTR
+ -t 15.109853104 -s 21 -d 6 -p DSR -e 60 -c 2 -a 0 -i 15 -k RTR 
- -t 15.109853104 -s 21 -d 6 -p DSR -e 60 -c 2 -a 0 -i 15 -k RTR
h -t 15.109853104 -s 21 -d 6 -p DSR -e 60 -c 2 -a 0 -i 15 -k RTR
+ -t 15.111891340 -s 6 -d 0 -p DSR -e 60 -c 2 -a 0 -i 15 -k RTR 
- -t 15.111891340 -s 6 -d 0 -p DSR -e 60 -c 2 -a 0 -i 15 -k RTR
h -t 15.111891340 -s 6 -d 0 -p DSR -e 60 -c 2 -a 0 -i 15 -k RTR
+ -t 15.116673371 -s 12 -d 6 -p DSR -e 60 -c 2 -a 0 -i 14 -k RTR 
- -t 15.116673371 -s 12 -d 6 -p DSR -e 60 -c 2 -a 0 -i 14 -k RTR
h -t 15.116673371 -s 12 -d 6 -p DSR -e 60 -c 2 -a 0 -i 14 -k RTR
+ -t 15.118695531 -s 20 -d 7 -p DSR -e 68 -c 2 -a 0 -i 10 -k RTR 
- -t 15.118695531 -s 20 -d 7 -p DSR -e 68 -c 2 -a 0 -i 10 -k RTR
h -t 15.118695531 -s 20 -d 7 -p DSR -e 68 -c 2 -a 0 -i 10 -k RTR
+ -t 15.121077002 -s 19 -d 9 -p DSR -e 68 -c 2 -a 0 -i 11 -k RTR 
- -t 15.121077002 -s 19 -d 9 -p DSR -e 68 -c 2 -a 0 -i 11 -k RTR
h -t 15.121077002 -s 19 -d 9 -p DSR -e 68 -c 2 -a 0 -i 11 -k RTR
+ -t 15.123119984 -s 7 -d 6 -p DSR -e 68 -c 2 -a 0 -i 10 -k RTR 
- -t 15.123119984 -s 7 -d 6 -p DSR -e 68 -c 2 -a 0 -i 10 -k RTR
h -t 15.123119984 -s 7 -d 6 -p DSR -e 68 -c 2 -a 0 -i 10 -k RTR
+ -t 15.125441984 -s 6 -d 0 -p DSR -e 68 -c 2 -a 0 -i 10 -k RTR 
- -t 15.125441984 -s 6 -d 0 -p DSR -e 68 -c 2 -a 0 -i 10 -k RTR
h -t 15.125441984 -s 6 -d 0 -p DSR -e 68 -c 2 -a 0 -i 10 -k RTR
+ -t 15.127510260 -s 6 -d 0 -p DSR -e 60 -c 2 -a 0 -i 14 -k RTR 
- -t 15.127510260 -s 6 -d 0 -p DSR -e 60 -c 2 -a 0 -i 14 -k RTR
h -t 15.127510260 -s 6 -d 0 -p DSR -e 60 -c 2 -a 0 -i 14 -k RTR
+ -t 15.133459454 -s 0 -d 6 -p cbr -e 560 -c 2 -a 0 -i 6 -k RTR 
- -t 15.133459454 -s 0 -d 6 -p cbr -e 560 -c 2 -a 0 -i 6 -k RTR
h -t 15.133459454 -s 0 -d 6 -p cbr -e 560 -c 2 -a 0 -i 6 -k RTR
+ -t 15.137087936 -s 0 -d -1 -p cbr -e 512 -c 2 -a 0 -i 16 -k AGT 
- -t 15.137087936 -s 0 -d -1 -p cbr -e 512 -c 2 -a 0 -i 16 -k AGT
h -t 15.137087936 -s 0 -d -1 -p cbr -e 512 -c 2 -a 0 -i 16 -k AGT
+ -t 15.137087936 -s 0 -d 6 -p cbr -e 556 -c 2 -a 0 -i 16 -k RTR 
- -t 15.137087936 -s 0 -d 6 -p cbr -e 556 -c 2 -a 0 -i 16 -k RTR
h -t 15.137087936 -s 0 -d 6 -p cbr -e 556 -c 2 -a 0 -i 16 -k RTR
+ -t 15.137608926 -s 6 -d 10 -p cbr -e 560 -c 2 -a 0 -i 0 -k RTR 
- -t 15.137608926 -s 6 -d 10 -p cbr -e 560 -c 2 -a 0 -i 0 -k RTR
h -t 15.137608926 -s 6 -d 10 -p cbr -e 560 -c 2 -a 0 -i 0 -k RTR
+ -t 15.143627593 -s 6 -d 10 -p cbr -e 560 -c 2 -a 0 -i 6 -k RTR 
- -t 15.143627593 -s 6 -d 10 -p cbr -e 560 -c 2 -a 0 -i 6 -k RTR
h -t 15.143627593 -s 6 -d 10 -p cbr -e 560 -c 2 -a 0 -i 6 -k RTR
+ -t 15.149845829 -s 10 -d 18 -p cbr -e 560 -c 2 -a 0 -i 0 -k RTR 
- -t 15.149845829 -s 10 -d 18 -p cbr -e 560 -c 2 -a 0 -i 0 -k RTR
h -t 15.149845829 -s 10 -d 18 -p cbr -e 560 -c 2 -a 0 -i 0 -k RTR
+ -t 15.155964811 -s 10 -d 18 -p cbr -e 560 -c 2 -a 0 -i 6 -k RTR 
- -t 15.155964811 -s 10 -d 18 -p cbr -e 560 -c 2 -a 0 -i 6 -k RTR
h -t 15.155964811 -s 10 -d 18 -p cbr -e 560 -c 2 -a 0 -i 6 -k RTR
+ -t 15.162203047 -s 18 -d 16 -p cbr -e 560 -c 2 -a 0 -i 0 -k RTR 
- -t 15.162203047 -s 18 -d 16 -p cbr -e 560 -c 2 -a 0 -i 0 -k RTR
h -t 15.162203047 -s 18 -d 16 -p cbr -e 560 -c 2 -a 0 -i 0 -k RTR
+ -t 15.164241616 -s 22 -d 25 -p DSR -e 60 -c 2 -a 0 -i 9 -k RTR 
- -t 15.164241616 -s 22 -d 25 -p DSR -e 60 -c 2 -a 0 -i 9 -k RTR
h -t 15.164241616 -s 22 -d 25 -p DSR -e 60 -c 2 -a 0 -i 9 -k RTR
+ -t 15.166239361 -s 13 -d 25 -p DSR -e 60 -c 2 -a 0 -i 8 -k RTR 
- -t 15.166239361 -s 13 -d 25 -p DSR -e 60 -c 2 -a 0 -i 8 -k RTR
h -t 15.166239361 -s 13 -d 25 -p DSR -e 60 -c 2 -a 0 -i 8 -k RTR
+ -t 15.169044540 -s 25 -d 0 -p DSR -e 60 -c 2 -a 0 -i 8 -k RTR 
- -t 15.169044540 -s 25 -d 0 -p DSR -e 60 -c 2 -a 0 -i 8 -k RTR
h -t 15.169044540 -s 25 -d 0 -p DSR -e 60 -c 2 -a 0 -i 8 -k RTR
+ -t 15.176948776 -s 6 -d 23 -p cbr -e 556 -c 2 -a 0 -i 16 -k RTR 
- -t 15.176948776 -s 6 -d 23 -p cbr -e 556 -c 2 -a 0 -i 16 -k RTR
h -t 15.176948776 -s 6 -d 23 -p cbr -e 556 -c 2 -a 0 -i 16 -k RTR
+ -t 15.179332066 -s 25 -d 0 -p DSR -e 60 -c 2 -a 0 -i 9 -k RTR 
- -t 15.179332066 -s 25 -d 0 -p DSR -e 60 -c 2 -a 0 -i 9 -k RTR
h -t 15.179332066 -s 25 -d 0 -p DSR -e 60 -c 2 -a 0 -i 9 -k RTR
+ -t 15.185307789 -s 23 -d 16 -p cbr -e 556 -c 2 -a 0 -i 16 -k RTR 
- -t 15.185307789 -s 23 -d 16 -p cbr -e 556 -c 2 -a 0 -i 16 -k RTR
h -t 15.185307789 -s 23 -d 16 -p cbr -e 556 -c 2 -a 0 -i 16 -k RTR
r -t 15.192260692 -s 16 -d 16 -p cbr -e 512 -c 2 -a 0 -i 16 -k AGT
+ -t 15.194238692 -s 10 -d 6 -p DSR -e 60 -c 2 -a 0 -i 4 -k RTR 
- -t 15.194238692 -s 10 -d 6 -p DSR -e 60 -c 2 -a 0 -i 4 -k RTR
h -t 15.194238692 -s 10 -d 6 -p DSR -e 60 -c 2 -a 0 -i 4 -k RTR
+ -t 15.196381674 -s 9 -d 6 -p DSR -e 68 -c 2 -a 0 -i 11 -k RTR 
- -t 15.196381674 -s 9 -d 6 -p DSR -e 68 -c 2 -a 0 -i 11 -k RTR
h -t 15.196381674 -s 9 -d 6 -p DSR -e 68 -c 2 -a 0 -i 11 -k RTR
+ -t 15.198602674 -s 6 -d 0 -p DSR -e 68 -c 2 -a 0 -i 11 -k RTR 
- -t 15.198602674 -s 6 -d 0 -p DSR -e 68 -c 2 -a 0 -i 11 -k RTR
h -t 15.198602674 -s 6 -d 0 -p DSR -e 68 -c 2 -a 0 -i 11 -k RTR
+ -t 15.201632445 -s 10 -d 6 -p DSR -e 68 -c 2 -a 0 -i 13 -k RTR 
- -t 15.201632445 -s 10 -d 6 -p DSR -e 68 -c 2 -a 0 -i 13 -k RTR
h -t 15.201632445 -s 10 -d 6 -p DSR -e 68 -c 2 -a 0 -i 13 -k RTR
+ -t 15.202151742 -s 0 -d -1 -p cbr -e 512 -c 2 -a 0 -i 17 -k AGT 
- -t 15.202151742 -s 0 -d -1 -p cbr -e 512 -c 2 -a 0 -i 17 -k AGT
h -t 15.202151742 -s 0 -d -1 -p cbr -e 512 -c 2 -a 0 -i 17 -k AGT
+ -t 15.202151742 -s 0 -d 6 -p cbr -e 556 -c 2 -a 0 -i 17 -k RTR 
- -t 15.202151742 -s 0 -d 6 -p cbr -e 556 -c 2 -a 0 -i 17 -k RTR
h -t 15.202151742 -s 0 -d 6 -p cbr -e 556 -c 2 -a 0 -i 17 -k RTR
+ -t 15.211171190 -s 6 -d 23 -p cbr -e 556 -c 2 -a 0 -i 17 -k RTR 
- -t 15.211171190 -s 6 -d 23 -p cbr -e 556 -c 2 -a 0 -i 17 -k RTR
h -t 15.211171190 -s 6 -d 23 -p cbr -e 556 -c 2 -a 0 -i 17 -k RTR
+ -t 15.217156604 -s 23 -d 16 -p cbr -e 556 -c 2 -a 0 -i 17 -k RTR 
- -t 15.217156604 -s 23 -d 16 -p cbr -e 556 -c 2 -a 0 -i 17 -k RTR
h -t 15.217156604 -s 23 -d 16 -p cbr -e 556 -c 2 -a 0 -i 17 -k RTR
+ -t 15.223110095 -s 16 -d 10 -p DSR -e 60 -c 2 -a 0 -i 18 -k RTR 
- -t 15.223110095 -s 16 -d 10 -p DSR -e 60 -c 2 -a 0 -i 18 -k RTR
h -t 15.223110095 -s 16 -d 10 -p DSR -e 60 -c 2 -a 0 -i 18 -k RTR
+ -t 15.223135174 -s 18 -d 16 -p cbr -e 560 -c 2 -a 0 -i 6 -k RTR 
- -t 15.223135174 -s 18 -d 16 -p cbr -e 560 -c 2 -a 0 -i 6 -k RTR
h -t 15.223135174 -s 18 -d 16 -p cbr -e 560 -c 2 -a 0 -i 6 -k RTR
+ -t 15.225373507 -s 10 -d 6 -p DSR -e 60 -c 2 -a 0 -i 18 -k RTR 
- -t 15.225373507 -s 10 -d 6 -p DSR -e 60 -c 2 -a 0 -i 18 -k RTR
h -t 15.225373507 -s 10 -d 6 -p DSR -e 60 -c 2 -a 0 -i 18 -k RTR
r -t 15.233529587 -s 16 -d 16 -p cbr -e 512 -c 2 -a 0 -i 0 -k AGT
+ -t 15.235632490 -s 6 -d 0 -p DSR -e 68 -c 2 -a 0 -i 13 -k RTR 
- -t 15.235632490 -s 6 -d 0 -p DSR -e 68 -c 2 -a 0 -i 13 -k RTR
h -t 15.235632490 -s 6 -d 0 -p DSR -e 68 -c 2 -a 0 -i 13 -k RTR
r -t 15.243663511 -s 16 -d 16 -p cbr -e 512 -c 2 -a 0 -i 6 -k AGT
+ -t 15.244142232 -s 0 -d -1 -p cbr -e 512 -c 2 -a 0 -i 19 -k AGT 
- -t 15.244142232 -s 0 -d -1 -p cbr -e 512 -c 2 -a 0 -i 19 -k AGT
h -t 15.244142232 -s 0 -d -1 -p cbr -e 512 -c 2 -a 0 -i 19 -k AGT
+ -t 15.244142232 -s 0 -d 6 -p cbr -e 556 -c 2 -a 0 -i 19 -k RTR 
- -t 15.244142232 -s 0 -d 6 -p cbr -e 556 -c 2 -a 0 -i 19 -k RTR
h -t 15.244142232 -s 0 -d 6 -p cbr -e 556 -c 2 -a 0 -i 19 -k RTR
r -t 15.249940357 -s 16 -d 16 -p cbr -e 512 -c 2 -a 0 -i 17 -k AGT
+ -t 15.252259260 -s 6 -d 0 -p DSR -e 60 -c 2 -a 0 -i 18 -k RTR 
- -t 15.252259260 -s 6 -d 0 -p DSR -e 60 -c 2 -a 0 -i 18 -k RTR
h -t 15.252259260 -s 6 -d 0 -p DSR -e 60 -c 2 -a 0 -i 18 -k RTR
+ -t 15.258495716 -s 6 -d 23 -p cbr -e 556 -c 2 -a 0 -i 19 -k RTR 
- -t 15.258495716 -s 6 -d 23 -p cbr -e 556 -c 2 -a 0 -i 19 -k RTR
h -t 15.258495716 -s 6 -d 23 -p cbr -e 556 -c 2 -a 0 -i 19 -k RTR
+ -t 15.260544487 -s 6 -d 0 -p DSR -e 60 -c 2 -a 0 -i 4 -k RTR 
- -t 15.260544487 -s 6 -d 0 -p DSR -e 60 -c 2 -a 0 -i 4 -k RTR
h -t 15.260544487 -s 6 -d 0 -p DSR -e 60 -c 2 -a 0 -i 4 -k RTR
+ -t 15.273669902 -s 23 -d 16 -p cbr -e 556 -c 2 -a 0 -i 19 -k RTR 
- -t 15.273669902 -s 23 -d 16 -p cbr -e 556 -c 2 -a 0 -i 19 -k RTR
h -t 15.273669902 -s 23 -d 16 -p cbr -e 556 -c 2 -a 0 -i 19 -k RTR
r -t 15.280176138 -s 16 -d 16 -p cbr -e 512 -c 2 -a 0 -i 19 -k AGT
+ -t 15.286881523 -s 0 -d -1 -p cbr -e 512 -c 2 -a 0 -i 20 -k AGT 
- -t 15.286881523 -s 0 -d -1 -p cbr -e 512 -c 2 -a 0 -i 20 -k AGT
h -t 15.286881523 -s 0 -d -1 -p cbr -e 512 -c 2 -a 0 -i 20 -k AGT
+ -t 15.286881523 -s 0 -d 6 -p cbr -e 532 -c 2 -a 0 -i 20 -k RTR 
- -t 15.286881523 -s 0 -d 6 -p cbr -e 532 -c 2 -a 0 -i 20 -k RTR
h -t 15.286881523 -s 0 -d 6 -p cbr -e 532 -c 2 -a 0 -i 20 -k RTR
+ -t 15.292651523 -s 6 -d 23 -p cbr -e 532 -c 2 -a 0 -i 20 -k RTR 
- -t 15.292651523 -s 6 -d 23 -p cbr -e 532 -c 2 -a 0 -i 20 -k RTR
h -t 15.292651523 -s 6 -d 23 -p cbr -e 532 -c 2 -a 0 -i 20 -k RTR
+ -t 15.298604938 -s 23 -d 16 -p cbr -e 532 -c 2 -a 0 -i 20 -k RTR 
- -t 15.298604938 -s 23 -d 16 -p cbr -e 532 -c 2 -a 0 -i 20 -k RTR
h -t 15.298604938 -s 23 -d 16 -p cbr -e 532 -c 2 -a 0 -i 20 -k RTR
r -t 15.304599174 -s 16 -d 16 -p cbr -e 512 -c 2 -a 0 -i 20 -k AGT
+ -t 15.348502528 -s 0 -d -1 -p cbr -e 512 -c 2 -a 0 -i 21 -k AGT 
- -t 15.348502528 -s 0 -d -1 -p cbr -e 512 -c 2 -a 0 -i 21 -k AGT
h -t 15.348502528 -s 0 -d -1 -p cbr -e 512 -c 2 -a 0 -i 21 -k AGT
+ -t 15.348502528 -s 0 -d 6 -p cbr -e 532 -c 2 -a 0 -i 21 -k RTR 
- -t 15.348502528 -s 0 -d 6 -p cbr -e 532 -c 2 -a 0 -i 21 -k RTR
h -t 15.348502528 -s 0 -d 6 -p cbr -e 532 -c 2 -a 0 -i 21 -k RTR
+ -t 15.354472528 -s 6 -d 23 -p cbr -e 532 -c 2 -a 0 -i 21 -k RTR 
- -t 15.354472528 -s 6 -d 23 -p cbr -e 532 -c 2 -a 0 -i 21 -k RTR
h -t 15.354472528 -s 6 -d 23 -p cbr -e 532 -c 2 -a 0 -i 21 -k RTR
+ -t 15.360345942 -s 23 -d 16 -p cbr -e 532 -c 2 -a 0 -i 21 -k RTR 
- -t 15.360345942 -s 23 -d 16 -p cbr -e 532 -c 2 -a 0 -i 21 -k RTR
h -t 15.360345942 -s 23 -d 16 -p cbr -e 532 -c 2 -a 0 -i 21 -k RTR
r -t 15.366180178 -s 16 -d 16 -p cbr -e 512 -c 2 -a 0 -i 21 -k AGT
+ -t 15.403720278 -s 0 -d -1 -p cbr -e 512 -c 2 -a 0 -i 22 -k AGT 
- -t 15.403720278 -s 0 -d -1 -p cbr -e 512 -c 2 -a 0 -i 22 -k AGT
h -t 15.403720278 -s 0 -d -1 -p cbr -e 512 -c 2 -a 0 -i 22 -k AGT
+ -t 15.403720278 -s 0 -d 6 -p cbr -e 532 -c 2 -a 0 -i 22 -k RTR 
- -t 15.403720278 -s 0 -d 6 -p cbr -e 532 -c 2 -a 0 -i 22 -k RTR
h -t 15.403720278 -s 0 -d 6 -p cbr -e 532 -c 2 -a 0 -i 22 -k RTR
+ -t 15.409450278 -s 6 -d 23 -p cbr -e 532 -c 2 -a 0 -i 22 -k RTR 
- -t 15.409450278 -s 6 -d 23 -p cbr -e 532 -c 2 -a 0 -i 22 -k RTR
h -t 15.409450278 -s 6 -d 23 -p cbr -e 532 -c 2 -a 0 -i 22 -k RTR
+ -t 15.415283692 -s 23 -d 16 -p cbr -e 532 -c 2 -a 0 -i 22 -k RTR 
- -t 15.415283692 -s 23 -d 16 -p cbr -e 532 -c 2 -a 0 -i 22 -k RTR
h -t 15.415283692 -s 23 -d 16 -p cbr -e 532 -c 2 -a 0 -i 22 -k RTR
r -t 15.421297928 -s 16 -d 16 -p cbr -e 512 -c 2 -a 0 -i 22 -k AGT
+ -t 15.457409494 -s 0 -d -1 -p cbr -e 512 -c 2 -a 0 -i 23 -k AGT 
- -t 15.457409494 -s 0 -d -1 -p cbr -e 512 -c 2 -a 0 -i 23 -k AGT
h -t 15.457409494 -s 0 -d -1 -p cbr -e 512 -c 2 -a 0 -i 23 -k AGT
+ -t 15.457409494 -s 0 -d 6 -p cbr -e 532 -c 2 -a 0 -i 23 -k RTR 
- -t 15.457409494 -s 0 -d 6 -p cbr -e 532 -c 2 -a 0 -i 23 -k RTR
h -t 15.457409494 -s 0 -d 6 -p cbr -e 532 -c 2 -a 0 -i 23 -k RTR
+ -t 15.463039494 -s 6 -d 23 -p cbr -e 532 -c 2 -a 0 -i 23 -k RTR 
- -t 15.463039494 -s 6 -d 23 -p cbr -e 532 -c 2 -a 0 -i 23 -k RTR
h -t 15.463039494 -s 6 -d 23 -p cbr -e 532 -c 2 -a 0 -i 23 -k RTR
+ -t 15.469232908 -s 23 -d 16 -p cbr -e 532 -c 2 -a 0 -i 23 -k RTR 
- -t 15.469232908 -s 23 -d 16 -p cbr -e 532 -c 2 -a 0 -i 23 -k RTR
h -t 15.469232908 -s 23 -d 16 -p cbr -e 532 -c 2 -a 0 -i 23 -k RTR
r -t 15.475327144 -s 16 -d 16 -p cbr -e 512 -c 2 -a 0 -i 23 -k AGT
+ -t 15.510157124 -s 0 -d -1 -p cbr -e 512 -c 2 -a 0 -i 24 -k AGT 
- -t 15.510157124 -s 0 -d -1 -p cbr -e 512 -c 2 -a 0 -i 24 -k AGT
h -t 15.510157124 -s 0 -d -1 -p cbr -e 512 -c 2 -a 0 -i 24 -k AGT
+ -t 15.510157124 -s 0 -d 6 -p cbr -e 532 -c 2 -a 0 -i 24 -k RTR 
- -t 15.510157124 -s 0 -d 6 -p cbr -e 532 -c 2 -a 0 -i 24 -k RTR
h -t 15.510157124 -s 0 -d 6 -p cbr -e 532 -c 2 -a 0 -i 24 -k RTR
+ -t 15.515667124 -s 6 -d 23 -p cbr -e 532 -c 2 -a 0 -i 24 -k RTR 
- -t 15.515667124 -s 6 -d 23 -p cbr -e 532 -c 2 -a 0 -i 24 -k RTR
h -t 15.515667124 -s 6 -d 23 -p cbr -e 532 -c 2 -a 0 -i 24 -k RTR
+ -t 15.521500538 -s 23 -d 16 -p cbr -e 532 -c 2 -a 0 -i 24 -k RTR 
- -t 15.521500538 -s 23 -d 16 -p cbr -e 532 -c 2 -a 0 -i 24 -k RTR
h -t 15.521500538 -s 23 -d 16 -p cbr -e 532 -c 2 -a 0 -i 24 -k RTR
r -t 15.527214774 -s 16 -d 16 -p cbr -e 512 -c 2 -a 0 -i 24 -k AGT
+ -t 15.553529434 -s 0 -d -1 -p cbr -e 512 -c 2 -a 0 -i 25 -k AGT 
- -t 15.553529434 -s 0 -d -1 -p cbr -e 512 -c 2 -a 0 -i 25 -k AGT
h -t 15.553529434 -s 0 -d -1 -p cbr -e 512 -c 2 -a 0 -i 25 -k AGT
+ -t 15.553529434 -s 0 -d 6 -p cbr -e 532 -c 2 -a 0 -i 25 -k RTR 
- -t 15.553529434 -s 0 -d 6 -p cbr -e 532 -c 2 -a 0 -i 25 -k RTR
h -t 15.553529434 -s 0 -d 6 -p cbr -e 532 -c 2 -a 0 -i 25 -k RTR
+ -t 15.559339434 -s 6 -d 23 -p cbr -e 532 -c 2 -a 0 -i 25 -k RTR 
- -t 15.559339434 -s 6 -d 23 -p cbr -e 532 -c 2 -a 0 -i 25 -k RTR
h -t 15.559339434 -s 6 -d 23 -p cbr -e 532 -c 2 -a 0 -i 25 -k RTR
+ -t 15.565072849 -s 23 -d 16 -p cbr -e 532 -c 2 -a 0 -i 25 -k RTR 
- -t 15.565072849 -s 23 -d 16 -p cbr -e 532 -c 2 -a 0 -i 25 -k RTR
h -t 15.565072849 -s 23 -d 16 -p cbr -e 532 -c 2 -a 0 -i 25 -k RTR
r -t 15.571247085 -s 16 -d 16 -p cbr -e 512 -c 2 -a 0 -i 25 -k AGT
+ -t 15.592778230 -s 0 -d -1 -p cbr -e 512 -c 2 -a 0 -i 26 -k AGT 
- -t 15.592778230 -s 0 -d -1 -p cbr -e 512 -c 2 -a 0 -i 26 -k AGT
h -t 15.592778230 -s 0 -d -1 -p cbr -e 512 -c 2 -a 0 -i 26 -k AGT
+ -t 15.592778230 -s 0 -d 6 -p cbr -e 532 -c 2 -a 0 -i 26 -k RTR 
- -t 15.592778230 -s 0 -d 6 -p cbr -e 532 -c 2 -a 0 -i 26 -k RTR
h -t 15.592778230 -s 0 -d 6 -p cbr -e 532 -c 2 -a 0 -i 26 -k RTR
+ -t 15.598388230 -s 6 -d 23 -p cbr -e 532 -c 2 -a 0 -i 26 -k RTR 
- -t 15.598388230 -s 6 -d 23 -p cbr -e 532 -c 2 -a 0 -i 26 -k RTR
h -t 15.598388230 -s 6 -d 23 -p cbr -e 532 -c 2 -a 0 -i 26 -k RTR
+ -t 15.604161644 -s 23 -d 16 -p cbr -e 532 -c 2 -a 0 -i 26 -k RTR 
- -t 15.604161644 -s 23 -d 16 -p cbr -e 532 -c 2 -a 0 -i 26 -k RTR
h -t 15.604161644 -s 23 -d 16 -p cbr -e 532 -c 2 -a 0 -i 26 -k RTR
r -t 15.610455880 -s 16 -d 16 -p cbr -e 512 -c 2 -a 0 -i 26 -k AGT
+ -t 15.660844435 -s 0 -d -1 -p cbr -e 512 -c 2 -a 0 -i 27 -k AGT 
- -t 15.660844435 -s 0 -d -1 -p cbr -e 512 -c 2 -a 0 -i 27 -k AGT
h -t 15.660844435 -s 0 -d -1 -p cbr -e 512 -c 2 -a 0 -i 27 -k AGT
+ -t 15.660844435 -s 0 -d 6 -p cbr -e 532 -c 2 -a 0 -i 27 -k RTR 
- -t 15.660844435 -s 0 -d 6 -p cbr -e 532 -c 2 -a 0 -i 27 -k RTR
h -t 15.660844435 -s 0 -d 6 -p cbr -e 532 -c 2 -a 0 -i 27 -k RTR
+ -t 15.666614435 -s 6 -d 23 -p cbr -e 532 -c 2 -a 0 -i 27 -k RTR 
- -t 15.666614435 -s 6 -d 23 -p cbr -e 532 -c 2 -a 0 -i 27 -k RTR
h -t 15.666614435 -s 6 -d 23 -p cbr -e 532 -c 2 -a 0 -i 27 -k RTR
+ -t 15.672747849 -s 23 -d 16 -p cbr -e 532 -c 2 -a 0 -i 27 -k RTR 
- -t 15.672747849 -s 23 -d 16 -p cbr -e 532 -c 2 -a 0 -i 27 -k RTR
h -t 15.672747849 -s 23 -d 16 -p cbr -e 532 -c 2 -a 0 -i 27 -k RTR
r -t 15.678922086 -s 16 -d 16 -p cbr -e 512 -c 2 -a 0 -i 27 -k AGT
+ -t 15.686164352 -s 0 -d -1 -p cbr -e 512 -c 2 -a 0 -i 28 -k AGT 
- -t 15.686164352 -s 0 -d -1 -p cbr -e 512 -c 2 -a 0 -i 28 -k AGT
h -t 15.686164352 -s 0 -d -1 -p cbr -e 512 -c 2 -a 0 -i 28 -k AGT
+ -t 15.686164352 -s 0 -d 6 -p cbr -e 532 -c 2 -a 0 -i 28 -k RTR 
- -t 15.686164352 -s 0 -d 6 -p cbr -e 532 -c 2 -a 0 -i 28 -k RTR
h -t 15.686164352 -s 0 -d 6 -p cbr -e 532 -c 2 -a 0 -i 28 -k RTR
+ -t 15.692154352 -s 6 -d 23 -p cbr -e 532 -c 2 -a 0 -i 28 -k RTR 
- -t 15.692154352 -s 6 -d 23 -p cbr -e 532 -c 2 -a 0 -i 28 -k RTR
h -t 15.692154352 -s 6 -d 23 -p cbr -e 532 -c 2 -a 0 -i 28 -k RTR
+ -t 15.698367766 -s 23 -d 16 -p cbr -e 532 -c 2 -a 0 -i 28 -k RTR 
- -t 15.698367766 -s 23 -d 16 -p cbr -e 532 -c 2 -a 0 -i 28 -k RTR
h -t 15.698367766 -s 23 -d 16 -p cbr -e 532 -c 2 -a 0 -i 28 -k RTR
r -t 15.704582003 -s 16 -d 16 -p cbr -e 512 -c 2 -a 0 -i 28 -k AGT
+ -t 15.754987704 -s 0 -d -1 -p cbr -e 512 -c 2 -a 0 -i 29 -k AGT 
- -t 15.754987704 -s 0 -d -1 -p cbr -e 512 -c 2 -a 0 -i 29 -k AGT
h -t 15.754987704 -s 0 -d -1 -p cbr -e 512 -c 2 -a 0 -i 29 -k AGT
+ -t 15.754987704 -s 0 -d 6 -p cbr -e 532 -c 2 -a 0 -i 29 -k RTR 
- -t 15.754987704 -s 0 -d 6 -p cbr -e 532 -c 2 -a 0 -i 29 -k RTR
h -t 15.754987704 -s 0 -d 6 -p cbr -e 532 -c 2 -a 0 -i 29 -k RTR
+ -t 15.760777704 -s 6 -d 23 -p cbr -e 532 -c 2 -a 0 -i 29 -k RTR 
- -t 15.760777704 -s 6 -d 23 -p cbr -e 532 -c 2 -a 0 -i 29 -k RTR
h -t 15.760777704 -s 6 -d 23 -p cbr -e 532 -c 2 -a 0 -i 29 -k RTR
+ -t 15.766551119 -s 23 -d 16 -p cbr -e 532 -c 2 -a 0 -i 29 -k RTR 
- -t 15.766551119 -s 23 -d 16 -p cbr -e 532 -c 2 -a 0 -i 29 -k RTR
h -t 15.766551119 -s 23 -d 16 -p cbr -e 532 -c 2 -a 0 -i 29 -k RTR
r -t 15.772745355 -s 16 -d 16 -p cbr -e 512 -c 2 -a 0 -i 29 -k AGT
+ -t 15.808731198 -s 0 -d -1 -p cbr -e 512 -c 2 -a 0 -i 30 -k AGT 
- -t 15.808731198 -s 0 -d -1 -p cbr -e 512 -c 2 -a 0 -i 30 -k AGT
h -t 15.808731198 -s 0 -d -1 -p cbr -e 512 -c 2 -a 0 -i 30 -k AGT
+ -t 15.808731198 -s 0 -d 6 -p cbr -e 532 -c 2 -a 0 -i 30 -k RTR 
- -t 15.808731198 -s 0 -d 6 -p cbr -e 532 -c 2 -a 0 -i 30 -k RTR
h -t 15.808731198 -s 0 -d 6 -p cbr -e 532 -c 2 -a 0 -i 30 -k RTR
+ -t 15.814461198 -s 6 -d 23 -p cbr -e 532 -c 2 -a 0 -i 30 -k RTR 
- -t 15.814461198 -s 6 -d 23 -p cbr -e 532 -c 2 -a 0 -i 30 -k RTR
h -t 15.814461198 -s 6 -d 23 -p cbr -e 532 -c 2 -a 0 -i 30 -k RTR
+ -t 15.820294612 -s 23 -d 16 -p cbr -e 532 -c 2 -a 0 -i 30 -k RTR 
- -t 15.820294612 -s 23 -d 16 -p cbr -e 532 -c 2 -a 0 -i 30 -k RTR
h -t 15.820294612 -s 23 -d 16 -p cbr -e 532 -c 2 -a 0 -i 30 -k RTR
r -t 15.826288848 -s 16 -d 16 -p cbr -e 512 -c 2 -a 0 -i 30 -k AGT
+ -t 15.860041021 -s 0 -d -1 -p cbr -e 512 -c 2 -a 0 -i 31 -k AGT 
- -t 15.860041021 -s 0 -d -1 -p cbr -e 512 -c 2 -a 0 -i 31 -k AGT
h -t 15.860041021 -s 0 -d -1 -p cbr -e 512 -c 2 -a 0 -i 31 -k AGT
+ -t 15.860041021 -s 0 -d 6 -p cbr -e 532 -c 2 -a 0 -i 31 -k RTR 
- -t 15.860041021 -s 0 -d 6 -p cbr -e 532 -c 2 -a 0 -i 31 -k RTR
h -t 15.860041021 -s 0 -d 6 -p cbr -e 532 -c 2 -a 0 -i 31 -k RTR
+ -t 15.865811021 -s 6 -d 23 -p cbr -e 532 -c 2 -a 0 -i 31 -k RTR 
- -t 15.865811021 -s 6 -d 23 -p cbr -e 532 -c 2 -a 0 -i 31 -k RTR
h -t 15.865811021 -s 6 -d 23 -p cbr -e 532 -c 2 -a 0 -i 31 -k RTR
+ -t 15.871764435 -s 23 -d 16 -p cbr -e 532 -c 2 -a 0 -i 31 -k RTR 
- -t 15.871764435 -s 23 -d 16 -p cbr -e 532 -c 2 -a 0 -i 31 -k RTR
h -t 15.871764435 -s 23 -d 16 -p cbr -e 532 -c 2 -a 0 -i 31 -k RTR
r -t 15.878058671 -s 16 -d 16 -p cbr -e 512 -c 2 -a 0 -i 31 -k AGT
+ -t 15.916917926 -s 0 -d -1 -p cbr -e 512 -c 2 -a 0 -i 32 -k AGT 
- -t 15.916917926 -s 0 -d -1 -p cbr -e 512 -c 2 -a 0 -i 32 -k AGT
h -t 15.916917926 -s 0 -d -1 -p cbr -e 512 -c 2 -a 0 -i 32 -k AGT
+ -t 15.916917926 -s 0 -d 6 -p cbr -e 532 -c 2 -a 0 -i 32 -k RTR 
- -t 15.916917926 -s 0 -d 6 -p cbr -e 532 -c 2 -a 0 -i 32 -k RTR
h -t 15.916917926 -s 0 -d 6 -p cbr -e 532 -c 2 -a 0 -i 32 -k RTR
+ -t 15.922547926 -s 6 -d 23 -p cbr -e 532 -c 2 -a 0 -i 32 -k RTR 
- -t 15.922547926 -s 6 -d 23 -p cbr -e 532 -c 2 -a 0 -i 32 -k RTR
h -t 15.922547926 -s 6 -d 23 -p cbr -e 532 -c 2 -a 0 -i 32 -k RTR
+ -t 15.928761340 -s 23 -d 16 -p cbr -e 532 -c 2 -a 0 -i 32 -k RTR 
- -t 15.928761340 -s 23 -d 16 -p cbr -e 532 -c 2 -a 0 -i 32 -k RTR
h -t 15.928761340 -s 23 -d 16 -p cbr -e 532 -c 2 -a 0 -i 32 -k RTR
r -t 15.934915576 -s 16 -d 16 -p cbr -e 512 -c 2 -a 0 -i 32 -k AGT
+ -t 15.945726384 -s 0 -d -1 -p cbr -e 512 -c 2 -a 0 -i 33 -k AGT 
- -t 15.945726384 -s 0 -d -1 -p cbr -e 512 -c 2 -a 0 -i 33 -k AGT