Sconfig 0.00000 tap: on snoop: rts? on errs? on
Sconfig 0.00000 salvage: on !bd replies? on
Sconfig 0.00000 grat error: on grat reply: on
Sconfig 0.00000 $reply for props: on ring 0 search: on
Sconfig 0.00000 using MOBICACHE
M 13.00000 12 (300.00, 400.00, 0.00), (132.00, 412.00), 3.00
s 15.000000000 _0_ AGT  --- 0 cbr 512 [0 0 0 0] ------- [0:0 18:0 32 0] [0] 0 0
r 15.000000000 _0_ RTR  --- 0 cbr 512 [0 0 0 0] ------- [0:0 18:0 32 0] [0] 0 0
s 15.009488615 _0_ RTR  --- 1 DSR 32 [0 0 0 0] ------- [0:255 18:255 32 0] 1 [1 1] [0 1 0 0->0] [0 0 0 0->0]
r 15.010700949 _5_ RTR  --- 1 DSR 32 [0 ffffffff 0 800] ------- [0:255 18:255 32 0] 1 [1 1] [0 1 0 0->0] [0 0 0 0->0]
r 15.010700949 _1_ RTR  --- 1 DSR 32 [0 ffffffff 0 800] ------- [0:255 18:255 32 0] 1 [1 1] [0 1 0 0->0] [0 0 0 0->0]
r 15.010701087 _6_ RTR  --- 1 DSR 32 [0 ffffffff 0 800] ------- [0:255 18:255 32 0] 1 [1 1] [0 1 0 0->0] [0 0 0 0->0]
r 15.010701282 _10_ RTR  --- 1 DSR 32 [0 ffffffff 0 800] ------- [0:255 18:255 32 0] 1 [1 1] [0 1 0 0->0] [0 0 0 0->0]
r 15.010701282 _2_ RTR  --- 1 DSR 32 [0 ffffffff 0 800] ------- [0:255 18:255 32 0] 1 [1 1] [0 1 0 0->0] [0 0 0 0->0]
r 15.010701361 _11_ RTR  --- 1 DSR 32 [0 ffffffff 0 800] ------- [0:255 18:255 32 0] 1 [1 1] [0 1 0 0->0] [0 0 0 0->0]
r 15.010701361 _7_ RTR  --- 1 DSR 32 [0 ffffffff 0 800] ------- [0:255 18:255 32 0] 1 [1 1] [0 1 0 0->0] [0 0 0 0->0]
s 15.042559970 _0_ RTR  --- 2 DSR 32 [0 0 0 0] ------- [0:255 18:255 32 0] 1 [1 2] [0 2 0 0->16] [0 0 0 0->0]
r 15.043572303 _5_ RTR  --- 2 DSR 32 [0 ffffffff 0 800] ------- [0:255 18:255 32 0] 1 [1 2] [0 2 0 0->16] [0 0 0 0->0]
r 15.043572303 _1_ RTR  --- 2 DSR 32 [0 ffffffff 0 800] ------- [0:255 18:255 32 0] 1 [1 2] [0 2 0 0->16] [0 0 0 0->0]
r 15.043572441 _6_ RTR  --- 2 DSR 32 [0 ffffffff 0 800] ------- [0:255 18:255 32 0] 1 [1 2] [0 2 0 0->16] [0 0 0 0->0]
r 15.043572636 _10_ RTR  --- 2 DSR 32 [0 ffffffff 0 800] ------- [0:255 18:255 32 0] 1 [1 2] [0 2 0 0->16] [0 0 0 0->0]
r 15.043572636 _2_ RTR  --- 2 DSR 32 [0 ffffffff 0 800] ------- [0:255 18:255 32 0] 1 [1 2] [0 2 0 0->16] [0 0 0 0->0]
r 15.043572715 _11_ RTR  --- 2 DSR 32 [0 ffffffff 0 800] ------- [0:255 18:255 32 0] 1 [1 2] [0 2 0 0->16] [0 0 0 0->0]
r 15.043572715 _7_ RTR  --- 2 DSR 32 [0 ffffffff 0 800] ------- [0:255 18:255 32 0] 1 [1 2] [0 2 0 0->16] [0 0 0 0->0]
f 15.046703250 _7_ RTR  --- 2 DSR 48 [0 ffffffff 0 800] ------- [0:255 18:255 32 0] 2 [1 2] [0 2 0 0->16] [0 0 0 0->0]
f 15.046901344 _11_ RTR  --- 2 DSR 48 [0 ffffffff 0 800] ------- [0:255 18:255 32 0] 2 [1 2] [0 2 0 0->16] [0 0 0 0->0]
f 15.047147925 _5_ RTR  --- 2 DSR 48 [0 ffffffff 0 800] ------- [0:255 18:255 32 0] 2 [1 2] [0 2 0 0->16] [0 0 0 0->0]
r 15.047961657 _12_ RTR  --- 2 DSR 48 [0 ffffffff b 800] ------- [0:255 18:255 32 0] 2 [1 2] [0 2 0 0->16] [0 0 0 0->0]
r 15.047961677 _6_ RTR  --- 2 DSR 48 [0 ffffffff b 800] ------- [0:255 18:255 32 0] 2 [1 2] [0 2 0 0->16] [0 0 0 0->0]
r 15.047961677 _10_ RTR  --- 2 DSR 48 [0 ffffffff b 800] ------- [0:255 18:255 32 0] 2 [1 2] [0 2 0 0->16] [0 0 0 0->0]
r 15.047961677 _16_ RTR  --- 2 DSR 48 [0 ffffffff b 800] ------- [0:255 18:255 32 0] 2 [1 2] [0 2 0 0->16] [0 0 0 0->0]
r 15.047961815 _15_ RTR  --- 2 DSR 48 [0 ffffffff b 800] ------- [0:255 18:255 32 0] 2 [1 2] [0 2 0 0->16] [0 0 0 0->0]
r 15.047961815 _5_ RTR  --- 2 DSR 48 [0 ffffffff b 800] ------- [0:255 18:255 32 0] 2 [1 2] [0 2 0 0->16] [0 0 0 0->0]
r 15.047961815 _7_ RTR  --- 2 DSR 48 [0 ffffffff b 800] ------- [0:255 18:255 32 0] 2 [1 2] [0 2 0 0->16] [0 0 0 0->0]
r 15.047961815 _17_ RTR  --- 2 DSR 48 [0 ffffffff b 800] ------- [0:255 18:255 32 0] 2 [1 2] [0 2 0 0->16] [0 0 0 0->0]
r 15.047962011 _1_ RTR  --- 2 DSR 48 [0 ffffffff b 800] ------- [0:255 18:255 32 0] 2 [1 2] [0 2 0 0->16] [0 0 0 0->0]
r 15.047962011 _13_ RTR  --- 2 DSR 48 [0 ffffffff b 800] ------- [0:255 18:255 32 0] 2 [1 2] [0 2 0 0->16] [0 0 0 0->0]
r 15.047962089 _0_ RTR  --- 2 DSR 48 [0 ffffffff b 800] ------- [0:255 18:255 32 0] 2 [1 2] [0 2 0 0->16] [0 0 0 0->0]
r 15.047962089 _2_ RTR  --- 2 DSR 48 [0 ffffffff b 800] ------- [0:255 18:255 32 0] 2 [1 2] [0 2 0 0->16] [0 0 0 0->0]
r 15.047962089 _8_ RTR  --- 2 DSR 48 [0 ffffffff b 800] ------- [0:255 18:255 32 0] 2 [1 2] [0 2 0 0->16] [0 0 0 0->0]
r 15.047962089 _18_ RTR  --- 2 DSR 48 [0 ffffffff b 800] ------- [0:255 18:255 32 0] 2 [1 2] [0 2 0 0->16] [0 0 0 0->0]
f 15.048104883 _12_ RTR  --- 2 DSR 68 [0 ffffffff b 800] ------- [0:255 18:255 32 0] 3 [1 2] [0 2 0 0->16] [0 0 0 0->0]
s 15.048788049 _18_ RTR  --- 3 DSR 52 [0 0 0 0] ------- [18:255 0:255 254 11] 3 [0 2] [1 2 3 0->18] [0 0 0 0->0]
f 15.049024434 _17_ RTR  --- 2 DSR 68 [0 ffffffff b 800] ------- [0:255 18:255 32 0] 3 [1 2] [0 2 0 0->16] [0 0 0 0->0]
r 15.049052149 _2_ RTR  --- 2 DSR 48 [0 ffffffff 7 800] ------- [0:255 18:255 32 0] 2 [1 2] [0 2 0 0->16] [0 0 0 0->0]
r 15.049052149 _6_ RTR  --- 2 DSR 48 [0 ffffffff 7 800] ------- [0:255 18:255 32 0] 2 [1 2] [0 2 0 0->16] [0 0 0 0->0]
r 15.049052149 _8_ RTR  --- 2 DSR 48 [0 ffffffff 7 800] ------- [0:255 18:255 32 0] 2 [1 2] [0 2 0 0->16] [0 0 0 0->0]
r 15.049052151 _12_ RTR  --- 2 DSR 48 [0 ffffffff 7 800] ------- [0:255 18:255 32 0] 2 [1 2] [0 2 0 0->16] [0 0 0 0->0]
r 15.049052287 _11_ RTR  --- 2 DSR 48 [0 ffffffff 7 800] ------- [0:255 18:255 32 0] 2 [1 2] [0 2 0 0->16] [0 0 0 0->0]
r 15.049052287 _1_ RTR  --- 2 DSR 48 [0 ffffffff 7 800] ------- [0:255 18:255 32 0] 2 [1 2] [0 2 0 0->16] [0 0 0 0->0]
r 15.049052287 _3_ RTR  --- 2 DSR 48 [0 ffffffff 7 800] ------- [0:255 18:255 32 0] 2 [1 2] [0 2 0 0->16] [0 0 0 0->0]
r 15.049052287 _13_ RTR  --- 2 DSR 48 [0 ffffffff 7 800] ------- [0:255 18:255 32 0] 2 [1 2] [0 2 0 0->16] [0 0 0 0->0]
r 15.049052482 _5_ RTR  --- 2 DSR 48 [0 ffffffff 7 800] ------- [0:255 18:255 32 0] 2 [1 2] [0 2 0 0->16] [0 0 0 0->0]
r 15.049052482 _17_ RTR  --- 2 DSR 48 [0 ffffffff 7 800] ------- [0:255 18:255 32 0] 2 [1 2] [0 2 0 0->16] [0 0 0 0->0]
r 15.049052482 _9_ RTR  --- 2 DSR 48 [0 ffffffff 7 800] ------- [0:255 18:255 32 0] 2 [1 2] [0 2 0 0->16] [0 0 0 0->0]
r 15.049052561 _16_ RTR  --- 2 DSR 48 [0 ffffffff 7 800] ------- [0:255 18:255 32 0] 2 [1 2] [0 2 0 0->16] [0 0 0 0->0]
r 15.049052561 _10_ RTR  --- 2 DSR 48 [0 ffffffff 7 800] ------- [0:255 18:255 32 0] 2 [1 2] [0 2 0 0->16] [0 0 0 0->0]
r 15.049052561 _0_ RTR  --- 2 DSR 48 [0 ffffffff 7 800] ------- [0:255 18:255 32 0] 2 [1 2] [0 2 0 0->16] [0 0 0 0->0]
r 15.049052561 _18_ RTR  --- 2 DSR 48 [0 ffffffff 7 800] ------- [0:255 18:255 32 0] 2 [1 2] [0 2 0 0->16] [0 0 0 0->0]
r 15.049052561 _4_ RTR  --- 2 DSR 48 [0 ffffffff 7 800] ------- [0:255 18:255 32 0] 2 [1 2] [0 2 0 0->16] [0 0 0 0->0]
r 15.049052561 _14_ RTR  --- 2 DSR 48 [0 ffffffff 7 800] ------- [0:255 18:255 32 0] 2 [1 2] [0 2 0 0->16] [0 0 0 0->0]
f 15.049929438 _2_ RTR  --- 2 DSR 48 [0 ffffffff 0 800] ------- [0:255 18:255 32 0] 2 [1 2] [0 2 0 0->16] [0 0 0 0->0]
f 15.050036087 _6_ RTR  --- 2 DSR 48 [0 ffffffff 0 800] ------- [0:255 18:255 32 0] 2 [1 2] [0 2 0 0->16] [0 0 0 0->0]
r 15.050184767 _12_ RTR  --- 2 DSR 68 [0 ffffffff 11 800] ------- [0:255 18:255 32 0] 3 [1 2] [0 2 0 0->16] [0 0 0 0->0]
r 15.050184768 _16_ RTR  --- 2 DSR 68 [0 ffffffff 11 800] ------- [0:255 18:255 32 0] 3 [1 2] [0 2 0 0->16] [0 0 0 0->0]
r 15.050184768 _18_ RTR  --- 2 DSR 68 [0 ffffffff 11 800] ------- [0:255 18:255 32 0] 3 [1 2] [0 2 0 0->16] [0 0 0 0->0]
r 15.050184906 _11_ RTR  --- 2 DSR 68 [0 ffffffff 11 800] ------- [0:255 18:255 32 0] 3 [1 2] [0 2 0 0->16] [0 0 0 0->0]
r 15.050184906 _13_ RTR  --- 2 DSR 68 [0 ffffffff 11 800] ------- [0:255 18:255 32 0] 3 [1 2] [0 2 0 0->16] [0 0 0 0->0]
r 15.050185101 _7_ RTR  --- 2 DSR 68 [0 ffffffff 11 800] ------- [0:255 18:255 32 0] 3 [1 2] [0 2 0 0->16] [0 0 0 0->0]
r 15.050185101 _15_ RTR  --- 2 DSR 68 [0 ffffffff 11 800] ------- [0:255 18:255 32 0] 3 [1 2] [0 2 0 0->16] [0 0 0 0->0]
r 15.050185101 _19_ RTR  --- 2 DSR 68 [0 ffffffff 11 800] ------- [0:255 18:255 32 0] 3 [1 2] [0 2 0 0->16] [0 0 0 0->0]
r 15.050185180 _6_ RTR  --- 2 DSR 68 [0 ffffffff 11 800] ------- [0:255 18:255 32 0] 3 [1 2] [0 2 0 0->16] [0 0 0 0->0]
r 15.050185180 _10_ RTR  --- 2 DSR 68 [0 ffffffff 11 800] ------- [0:255 18:255 32 0] 3 [1 2] [0 2 0 0->16] [0 0 0 0->0]
r 15.050185180 _8_ RTR  --- 2 DSR 68 [0 ffffffff 11 800] ------- [0:255 18:255 32 0] 3 [1 2] [0 2 0 0->16] [0 0 0 0->0]
r 15.050185180 _14_ RTR  --- 2 DSR 68 [0 ffffffff 11 800] ------- [0:255 18:255 32 0] 3 [1 2] [0 2 0 0->16] [0 0 0 0->0]
r 15.051439711 _0_ RTR  --- 2 DSR 48 [0 ffffffff 5 800] ------- [0:255 18:255 32 0] 2 [1 2] [0 2 0 0->16] [0 0 0 0->0]
r 15.051439711 _10_ RTR  --- 2 DSR 48 [0 ffffffff 5 800] ------- [0:255 18:255 32 0] 2 [1 2] [0 2 0 0->16] [0 0 0 0->0]
r 15.051439711 _6_ RTR  --- 2 DSR 48 [0 ffffffff 5 800] ------- [0:255 18:255 32 0] 2 [1 2] [0 2 0 0->16] [0 0 0 0->0]
r 15.051439849 _1_ RTR  --- 2 DSR 48 [0 ffffffff 5 800] ------- [0:255 18:255 32 0] 2 [1 2] [0 2 0 0->16] [0 0 0 0->0]
r 15.051439849 _11_ RTR  --- 2 DSR 48 [0 ffffffff 5 800] ------- [0:255 18:255 32 0] 2 [1 2] [0 2 0 0->16] [0 0 0 0->0]
r 15.051440044 _15_ RTR  --- 2 DSR 48 [0 ffffffff 5 800] ------- [0:255 18:255 32 0] 2 [1 2] [0 2 0 0->16] [0 0 0 0->0]
r 15.051440044 _7_ RTR  --- 2 DSR 48 [0 ffffffff 5 800] ------- [0:255 18:255 32 0] 2 [1 2] [0 2 0 0->16] [0 0 0 0->0]
r 15.051440105 _12_ RTR  --- 2 DSR 48 [0 ffffffff 5 800] ------- [0:255 18:255 32 0] 2 [1 2] [0 2 0 0->16] [0 0 0 0->0]
r 15.051440123 _16_ RTR  --- 2 DSR 48 [0 ffffffff 5 800] ------- [0:255 18:255 32 0] 2 [1 2] [0 2 0 0->16] [0 0 0 0->0]
r 15.051440123 _2_ RTR  --- 2 DSR 48 [0 ffffffff 5 800] ------- [0:255 18:255 32 0] 2 [1 2] [0 2 0 0->16] [0 0 0 0->0]
f 15.051819132 _15_ RTR  --- 2 DSR 68 [0 ffffffff b 800] ------- [0:255 18:255 32 0] 3 [1 2] [0 2 0 0->16] [0 0 0 0->0]
f 15.051940517 _1_ RTR  --- 2 DSR 48 [0 ffffffff 0 800] ------- [0:255 18:255 32 0] 2 [1 2] [0 2 0 0->16] [0 0 0 0->0]
s 15.052067786 _0_ AGT  --- 6 cbr 512 [0 0 0 0] ------- [0:0 18:0 32 0] [1] 0 0
r 15.052067786 _0_ RTR  --- 6 cbr 512 [0 0 0 0] ------- [0:0 18:0 32 0] [1] 0 0
r 15.052490418 _11_ RTR  --- 2 DSR 68 [0 ffffffff c 800] ------- [0:255 18:255 32 0] 3 [1 2] [0 2 0 0->16] [0 0 0 0->0]
r 15.052490438 _17_ RTR  --- 2 DSR 68 [0 ffffffff c 800] ------- [0:255 18:255 32 0] 3 [1 2] [0 2 0 0->16] [0 0 0 0->0]
r 15.052490440 _7_ RTR  --- 2 DSR 68 [0 ffffffff c 800] ------- [0:255 18:255 32 0] 3 [1 2] [0 2 0 0->16] [0 0 0 0->0]
r 15.052490459 _13_ RTR  --- 2 DSR 68 [0 ffffffff c 800] ------- [0:255 18:255 32 0] 3 [1 2] [0 2 0 0->16] [0 0 0 0->0]
r 15.052490561 _16_ RTR  --- 2 DSR 68 [0 ffffffff c 800] ------- [0:255 18:255 32 0] 3 [1 2] [0 2 0 0->16] [0 0 0 0->0]
r 15.052490563 _6_ RTR  --- 2 DSR 68 [0 ffffffff c 800] ------- [0:255 18:255 32 0] 3 [1 2] [0 2 0 0->16] [0 0 0 0->0]
r 15.052490590 _18_ RTR  --- 2 DSR 68 [0 ffffffff c 800] ------- [0:255 18:255 32 0] 3 [1 2] [0 2 0 0->16] [0 0 0 0->0]
r 15.052490592 _8_ RTR  --- 2 DSR 68 [0 ffffffff c 800] ------- [0:255 18:255 32 0] 3 [1 2] [0 2 0 0->16] [0 0 0 0->0]
r 15.052490751 _10_ RTR  --- 2 DSR 68 [0 ffffffff c 800] ------- [0:255 18:255 32 0] 3 [1 2] [0 2 0 0->16] [0 0 0 0->0]
r 15.052490773 _2_ RTR  --- 2 DSR 68 [0 ffffffff c 800] ------- [0:255 18:255 32 0] 3 [1 2] [0 2 0 0->16] [0 0 0 0->0]
r 15.052490792 _14_ RTR  --- 2 DSR 68 [0 ffffffff c 800] ------- [0:255 18:255 32 0] 3 [1 2] [0 2 0 0->16] [0 0 0 0->0]
r 15.052490831 _15_ RTR  --- 2 DSR 68 [0 ffffffff c 800] ------- [0:255 18:255 32 0] 3 [1 2] [0 2 0 0->16] [0 0 0 0->0]
r 15.052490833 _5_ RTR  --- 2 DSR 68 [0 ffffffff c 800] ------- [0:255 18:255 32 0] 3 [1 2] [0 2 0 0->16] [0 0 0 0->0]
r 15.052490843 _1_ RTR  --- 2 DSR 68 [0 ffffffff c 800] ------- [0:255 18:255 32 0] 3 [1 2] [0 2 0 0->16] [0 0 0 0->0]
r 15.052490861 _3_ RTR  --- 2 DSR 68 [0 ffffffff c 800] ------- [0:255 18:255 32 0] 3 [1 2] [0 2 0 0->16] [0 0 0 0->0]
r 15.052490868 _19_ RTR  --- 2 DSR 68 [0 ffffffff c 800] ------- [0:255 18:255 32 0] 3 [1 2] [0 2 0 0->16] [0 0 0 0->0]
r 15.052490869 _9_ RTR  --- 2 DSR 68 [0 ffffffff c 800] ------- [0:255 18:255 32 0] 3 [1 2] [0 2 0 0->16] [0 0 0 0->0]
f 15.052647270 _10_ RTR  --- 2 DSR 48 [0 ffffffff 0 800] ------- [0:255 18:255 32 0] 2 [1 2] [0 2 0 0->16] [0 0 0 0->0]
f 15.052739776 _16_ RTR  --- 2 DSR 68 [0 ffffffff b 800] ------- [0:255 18:255 32 0] 3 [1 2] [0 2 0 0->16] [0 0 0 0->0]
r 15.053341176 _0_ RTR  --- 2 DSR 48 [0 ffffffff 1 800] ------- [0:255 18:255 32 0] 2 [1 2] [0 2 0 0->16] [0 0 0 0->0]
r 15.053341176 _6_ RTR  --- 2 DSR 48 [0 ffffffff 1 800] ------- [0:255 18:255 32 0] 2 [1 2] [0 2 0 0->16] [0 0 0 0->0]
r 15.053341176 _2_ RTR  --- 2 DSR 48 [0 ffffffff 1 800] ------- [0:255 18:255 32 0] 2 [1 2] [0 2 0 0->16] [0 0 0 0->0]
r 15.053341314 _5_ RTR  --- 2 DSR 48 [0 ffffffff 1 800] ------- [0:255 18:255 32 0] 2 [1 2] [0 2 0 0->16] [0 0 0 0->0]
r 15.053341314 _7_ RTR  --- 2 DSR 48 [0 ffffffff 1 800] ------- [0:255 18:255 32 0] 2 [1 2] [0 2 0 0->16] [0 0 0 0->0]
r 15.053341509 _11_ RTR  --- 2 DSR 48 [0 ffffffff 1 800] ------- [0:255 18:255 32 0] 2 [1 2] [0 2 0 0->16] [0 0 0 0->0]
r 15.053341509 _3_ RTR  --- 2 DSR 48 [0 ffffffff 1 800] ------- [0:255 18:255 32 0] 2 [1 2] [0 2 0 0->16] [0 0 0 0->0]
r 15.053341581 _12_ RTR  --- 2 DSR 48 [0 ffffffff 1 800] ------- [0:255 18:255 32 0] 2 [1 2] [0 2 0 0->16] [0 0 0 0->0]
r 15.053341588 _10_ RTR  --- 2 DSR 48 [0 ffffffff 1 800] ------- [0:255 18:255 32 0] 2 [1 2] [0 2 0 0->16] [0 0 0 0->0]
r 15.053341588 _8_ RTR  --- 2 DSR 48 [0 ffffffff 1 800] ------- [0:255 18:255 32 0] 2 [1 2] [0 2 0 0->16] [0 0 0 0->0]
s 15.054013473 _18_ RTR  --- 5 DSR 60 [0 0 0 0] ------- [18:255 0:255 254 17] 4 [0 2] [1 2 4 0->18] [0 0 0 0->0]
r 15.054211509 _1_ RTR  --- 2 DSR 48 [0 ffffffff 2 800] ------- [0:255 18:255 32 0] 2 [1 2] [0 2 0 0->16] [0 0 0 0->0]
r 15.054211509 _7_ RTR  --- 2 DSR 48 [0 ffffffff 2 800] ------- [0:255 18:255 32 0] 2 [1 2] [0 2 0 0->16] [0 0 0 0->0]
r 15.054211509 _3_ RTR  --- 2 DSR 48 [0 ffffffff 2 800] ------- [0:255 18:255 32 0] 2 [1 2] [0 2 0 0->16] [0 0 0 0->0]
r 15.054211648 _6_ RTR  --- 2 DSR 48 [0 ffffffff 2 800] ------- [0:255 18:255 32 0] 2 [1 2] [0 2 0 0->16] [0 0 0 0->0]
r 15.054211648 _8_ RTR  --- 2 DSR 48 [0 ffffffff 2 800] ------- [0:255 18:255 32 0] 2 [1 2] [0 2 0 0->16] [0 0 0 0->0]
r 15.054211843 _0_ RTR  --- 2 DSR 48 [0 ffffffff 2 800] ------- [0:255 18:255 32 0] 2 [1 2] [0 2 0 0->16] [0 0 0 0->0]
r 15.054211843 _4_ RTR  --- 2 DSR 48 [0 ffffffff 2 800] ------- [0:255 18:255 32 0] 2 [1 2] [0 2 0 0->16] [0 0 0 0->0]
r 15.054211845 _12_ RTR  --- 2 DSR 48 [0 ffffffff 2 800] ------- [0:255 18:255 32 0] 2 [1 2] [0 2 0 0->16] [0 0 0 0->0]
r 15.054211921 _11_ RTR  --- 2 DSR 48 [0 ffffffff 2 800] ------- [0:255 18:255 32 0] 2 [1 2] [0 2 0 0->16] [0 0 0 0->0]
r 15.054211921 _5_ RTR  --- 2 DSR 48 [0 ffffffff 2 800] ------- [0:255 18:255 32 0] 2 [1 2] [0 2 0 0->16] [0 0 0 0->0]
r 15.054211921 _13_ RTR  --- 2 DSR 48 [0 ffffffff 2 800] ------- [0:255 18:255 32 0] 2 [1 2] [0 2 0 0->16] [0 0 0 0->0]
r 15.054211921 _9_ RTR  --- 2 DSR 48 [0 ffffffff 2 800] ------- [0:255 18:255 32 0] 2 [1 2] [0 2 0 0->16] [0 0 0 0->0]
f 15.054413408 _19_ RTR  --- 2 DSR 92 [0 ffffffff 11 800] ------- [0:255 18:255 32 0] 4 [1 2] [0 2 0 0->16] [0 0 0 0->0]
f 15.055141127 _4_ RTR  --- 2 DSR 68 [0 ffffffff 7 800] ------- [0:255 18:255 32 0] 3 [1 2] [0 2 0 0->16] [0 0 0 0->0]
r 15.055141981 _1_ RTR  --- 2 DSR 48 [0 ffffffff 6 800] ------- [0:255 18:255 32 0] 2 [1 2] [0 2 0 0->16] [0 0 0 0->0]
r 15.055141981 _5_ RTR  --- 2 DSR 48 [0 ffffffff 6 800] ------- [0:255 18:255 32 0] 2 [1 2] [0 2 0 0->16] [0 0 0 0->0]
r 15.055141981 _11_ RTR  --- 2 DSR 48 [0 ffffffff 6 800] ------- [0:255 18:255 32 0] 2 [1 2] [0 2 0 0->16] [0 0 0 0->0]
r 15.055141981 _7_ RTR  --- 2 DSR 48 [0 ffffffff 6 800] ------- [0:255 18:255 32 0] 2 [1 2] [0 2 0 0->16] [0 0 0 0->0]
r 15.055142106 _12_ RTR  --- 2 DSR 48 [0 ffffffff 6 800] ------- [0:255 18:255 32 0] 2 [1 2] [0 2 0 0->16] [0 0 0 0->0]
r 15.055142119 _10_ RTR  --- 2 DSR 48 [0 ffffffff 6 800] ------- [0:255 18:255 32 0] 2 [1 2] [0 2 0 0->16] [0 0 0 0->0]
r 15.055142119 _0_ RTR  --- 2 DSR 48 [0 ffffffff 6 800] ------- [0:255 18:255 32 0] 2 [1 2] [0 2 0 0->16] [0 0 0 0->0]
r 15.055142119 _2_ RTR  --- 2 DSR 48 [0 ffffffff 6 800] ------- [0:255 18:255 32 0] 2 [1 2] [0 2 0 0->16] [0 0 0 0->0]
r 15.055142314 _16_ RTR  --- 2 DSR 48 [0 ffffffff 6 800] ------- [0:255 18:255 32 0] 2 [1 2] [0 2 0 0->16] [0 0 0 0->0]
r 15.055142314 _8_ RTR  --- 2 DSR 48 [0 ffffffff 6 800] ------- [0:255 18:255 32 0] 2 [1 2] [0 2 0 0->16] [0 0 0 0->0]
r 15.055142393 _15_ RTR  --- 2 DSR 48 [0 ffffffff 6 800] ------- [0:255 18:255 32 0] 2 [1 2] [0 2 0 0->16] [0 0 0 0->0]
r 15.055142393 _17_ RTR  --- 2 DSR 48 [0 ffffffff 6 800] ------- [0:255 18:255 32 0] 2 [1 2] [0 2 0 0->16] [0 0 0 0->0]
r 15.055142393 _3_ RTR  --- 2 DSR 48 [0 ffffffff 6 800] ------- [0:255 18:255 32 0] 2 [1 2] [0 2 0 0->16] [0 0 0 0->0]
r 15.055142393 _13_ RTR  --- 2 DSR 48 [0 ffffffff 6 800] ------- [0:255 18:255 32 0] 2 [1 2] [0 2 0 0->16] [0 0 0 0->0]
f 15.055157672 _8_ RTR  --- 2 DSR 68 [0 ffffffff b 800] ------- [0:255 18:255 32 0] 3 [1 2] [0 2 0 0->16] [0 0 0 0->0]
s 15.055744880 _18_ RTR  --- 4 DSR 52 [0 0 0 0] ------- [18:255 0:255 254 7] 3 [0 2] [1 2 3 0->18] [0 0 0 0->0]
f 15.056190592 _9_ RTR  --- 2 DSR 68 [0 ffffffff 7 800] ------- [0:255 18:255 32 0] 3 [1 2] [0 2 0 0->16] [0 0 0 0->0]
r 15.056312648 _11_ RTR  --- 2 DSR 68 [0 ffffffff 10 800] ------- [0:255 18:255 32 0] 3 [1 2] [0 2 0 0->16] [0 0 0 0->0]
r 15.056312648 _15_ RTR  --- 2 DSR 68 [0 ffffffff 10 800] ------- [0:255 18:255 32 0] 3 [1 2] [0 2 0 0->16] [0 0 0 0->0]
r 15.056312648 _17_ RTR  --- 2 DSR 68 [0 ffffffff 10 800] ------- [0:255 18:255 32 0] 3 [1 2] [0 2 0 0->16] [0 0 0 0->0]
r 15.056312770 _12_ RTR  --- 2 DSR 68 [0 ffffffff 10 800] ------- [0:255 18:255 32 0] 3 [1 2] [0 2 0 0->16] [0 0 0 0->0]
r 15.056312786 _10_ RTR  --- 2 DSR 68 [0 ffffffff 10 800] ------- [0:255 18:255 32 0] 3 [1 2] [0 2 0 0->16] [0 0 0 0->0]
r 15.056312981 _6_ RTR  --- 2 DSR 68 [0 ffffffff 10 800] ------- [0:255 18:255 32 0] 3 [1 2] [0 2 0 0->16] [0 0 0 0->0]
r 15.056312981 _18_ RTR  --- 2 DSR 68 [0 ffffffff 10 800] ------- [0:255 18:255 32 0] 3 [1 2] [0 2 0 0->16] [0 0 0 0->0]
r 15.056313060 _5_ RTR  --- 2 DSR 68 [0 ffffffff 10 800] ------- [0:255 18:255 32 0] 3 [1 2] [0 2 0 0->16] [0 0 0 0->0]
r 15.056313060 _7_ RTR  --- 2 DSR 68 [0 ffffffff 10 800] ------- [0:255 18:255 32 0] 3 [1 2] [0 2 0 0->16] [0 0 0 0->0]
r 15.056313060 _13_ RTR  --- 2 DSR 68 [0 ffffffff 10 800] ------- [0:255 18:255 32 0] 3 [1 2] [0 2 0 0->16] [0 0 0 0->0]
f 15.056313657 _14_ RTR  --- 2 DSR 68 [0 ffffffff 7 800] ------- [0:255 18:255 32 0] 3 [1 2] [0 2 0 0->16] [0 0 0 0->0]
s 15.056829228 _18_ RTR  --- 8 DSR 60 [0 0 0 0] ------- [18:255 0:255 254 12] 4 [0 2] [1 2 4 0->18] [0 0 0 0->0]
f 15.057619689 _3_ RTR  --- 2 DSR 68 [0 ffffffff 7 800] ------- [0:255 18:255 32 0] 3 [1 2] [0 2 0 0->16] [0 0 0 0->0]
r 15.057893217 _11_ RTR  --- 3 DSR 52 [13a b 12 800] ------- [18:255 0:255 254 11] 3 [0 2] [1 2 3 0->18] [0 0 0 0->0]
f 15.057893217 _11_ RTR  --- 3 DSR 52 [13a b 12 800] ------- [18:255 0:255 253 0] 3 [0 2] [1 2 3 0->18] [0 0 0 0->0]
f 15.057930426 _13_ RTR  --- 2 DSR 68 [0 ffffffff b 800] ------- [0:255 18:255 32 0] 3 [1 2] [0 2 0 0->16] [0 0 0 0->0]
r 15.059238217 _8_ RTR  --- 2 DSR 68 [0 ffffffff d 800] ------- [0:255 18:255 32 0] 3 [1 2] [0 2 0 0->16] [0 0 0 0->0]
r 15.059238217 _18_ RTR  --- 2 DSR 68 [0 ffffffff d 800] ------- [0:255 18:255 32 0] 3 [1 2] [0 2 0 0->16] [0 0 0 0->0]
r 15.059238217 _14_ RTR  --- 2 DSR 68 [0 ffffffff d 800] ------- [0:255 18:255 32 0] 3 [1 2] [0 2 0 0->16] [0 0 0 0->0]
r 15.059238237 _12_ RTR  --- 2 DSR 68 [0 ffffffff d 800] ------- [0:255 18:255 32 0] 3 [1 2] [0 2 0 0->16] [0 0 0 0->0]
r 15.059238355 _17_ RTR  --- 2 DSR 68 [0 ffffffff d 800] ------- [0:255 18:255 32 0] 3 [1 2] [0 2 0 0->16] [0 0 0 0->0]
r 15.059238355 _7_ RTR  --- 2 DSR 68 [0 ffffffff d 800] ------- [0:255 18:255 32 0] 3 [1 2] [0 2 0 0->16] [0 0 0 0->0]
r 15.059238355 _9_ RTR  --- 2 DSR 68 [0 ffffffff d 800] ------- [0:255 18:255 32 0] 3 [1 2] [0 2 0 0->16] [0 0 0 0->0]
r 15.059238355 _19_ RTR  --- 2 DSR 68 [0 ffffffff d 800] ------- [0:255 18:255 32 0] 3 [1 2] [0 2 0 0->16] [0 0 0 0->0]
r 15.059238550 _3_ RTR  --- 2 DSR 68 [0 ffffffff d 800] ------- [0:255 18:255 32 0] 3 [1 2] [0 2 0 0->16] [0 0 0 0->0]
r 15.059238550 _11_ RTR  --- 2 DSR 68 [0 ffffffff d 800] ------- [0:255 18:255 32 0] 3 [1 2] [0 2 0 0->16] [0 0 0 0->0]
r 15.059238629 _2_ RTR  --- 2 DSR 68 [0 ffffffff d 800] ------- [0:255 18:255 32 0] 3 [1 2] [0 2 0 0->16] [0 0 0 0->0]
r 15.059238629 _16_ RTR  --- 2 DSR 68 [0 ffffffff d 800] ------- [0:255 18:255 32 0] 3 [1 2] [0 2 0 0->16] [0 0 0 0->0]
r 15.059238629 _6_ RTR  --- 2 DSR 68 [0 ffffffff d 800] ------- [0:255 18:255 32 0] 3 [1 2] [0 2 0 0->16] [0 0 0 0->0]
r 15.059238629 _4_ RTR  --- 2 DSR 68 [0 ffffffff d 800] ------- [0:255 18:255 32 0] 3 [1 2] [0 2 0 0->16] [0 0 0 0->0]
r 15.060248962 _3_ RTR  --- 2 DSR 68 [0 ffffffff 4 800] ------- [0:255 18:255 32 0] 3 [1 2] [0 2 0 0->16] [0 0 0 0->0]
r 15.060248962 _9_ RTR  --- 2 DSR 68 [0 ffffffff 4 800] ------- [0:255 18:255 32 0] 3 [1 2] [0 2 0 0->16] [0 0 0 0->0]
r 15.060249296 _2_ RTR  --- 2 DSR 68 [0 ffffffff 4 800] ------- [0:255 18:255 32 0] 3 [1 2] [0 2 0 0->16] [0 0 0 0->0]
r 15.060440688 _14_ RTR  --- 2 DSR 92 [0 ffffffff 13 800] ------- [0:255 18:255 32 0] 4 [1 2] [0 2 0 0->16] [0 0 0 0->0]
r 15.060440688 _18_ RTR  --- 2 DSR 92 [0 ffffffff 13 800] ------- [0:255 18:255 32 0] 4 [1 2] [0 2 0 0->16] [0 0 0 0->0]
r 15.060441022 _17_ RTR  --- 2 DSR 92 [0 ffffffff 13 800] ------- [0:255 18:255 32 0] 4 [1 2] [0 2 0 0->16] [0 0 0 0->0]
r 15.061915742 _2_ RTR  --- 2 DSR 68 [0 ffffffff 3 800] ------- [0:255 18:255 32 0] 3 [1 2] [0 2 0 0->16] [0 0 0 0->0]
r 15.061915742 _8_ RTR  --- 2 DSR 68 [0 ffffffff 3 800] ------- [0:255 18:255 32 0] 3 [1 2] [0 2 0 0->16] [0 0 0 0->0]
r 15.061915742 _4_ RTR  --- 2 DSR 68 [0 ffffffff 3 800] ------- [0:255 18:255 32 0] 3 [1 2] [0 2 0 0->16] [0 0 0 0->0]
r 15.061915881 _7_ RTR  --- 2 DSR 68 [0 ffffffff 3 800] ------- [0:255 18:255 32 0] 3 [1 2] [0 2 0 0->16] [0 0 0 0->0]
r 15.061915881 _9_ RTR  --- 2 DSR 68 [0 ffffffff 3 800] ------- [0:255 18:255 32 0] 3 [1 2] [0 2 0 0->16] [0 0 0 0->0]
r 15.061916022 _10_ RTR  --- 2 DSR 68 [0 ffffffff f 800] ------- [0:255 18:255 32 0] 3 [1 2] [0 2 0 0->16] [0 0 0 0->0]
r 15.061916022 _16_ RTR  --- 2 DSR 68 [0 ffffffff f 800] ------- [0:255 18:255 32 0] 3 [1 2] [0 2 0 0->16] [0 0 0 0->0]
r 15.061916154 _14_ RTR  --- 2 DSR 68 [0 ffffffff 3 800] ------- [0:255 18:255 32 0] 3 [1 2] [0 2 0 0->16] [0 0 0 0->0]
r 15.061916160 _11_ RTR  --- 2 DSR 68 [0 ffffffff f 800] ------- [0:255 18:255 32 0] 3 [1 2] [0 2 0 0->16] [0 0 0 0->0]
s 15.062906336 _18_ RTR  --- 9 DSR 60 [0 0 0 0] ------- [18:255 0:255 254 16] 4 [0 2] [1 2 4 0->18] [0 0 0 0->0]
r 15.063351224 _3_ RTR  --- 2 DSR 68 [0 ffffffff 8 800] ------- [0:255 18:255 32 0] 3 [1 2] [0 2 0 0->16] [0 0 0 0->0]
r 15.063351224 _7_ RTR  --- 2 DSR 68 [0 ffffffff 8 800] ------- [0:255 18:255 32 0] 3 [1 2] [0 2 0 0->16] [0 0 0 0->0]
r 15.063351224 _13_ RTR  --- 2 DSR 68 [0 ffffffff 8 800] ------- [0:255 18:255 32 0] 3 [1 2] [0 2 0 0->16] [0 0 0 0->0]
r 15.063351224 _9_ RTR  --- 2 DSR 68 [0 ffffffff 8 800] ------- [0:255 18:255 32 0] 3 [1 2] [0 2 0 0->16] [0 0 0 0->0]
r 15.063351362 _2_ RTR  --- 2 DSR 68 [0 ffffffff 8 800] ------- [0:255 18:255 32 0] 3 [1 2] [0 2 0 0->16] [0 0 0 0->0]
r 15.063351362 _4_ RTR  --- 2 DSR 68 [0 ffffffff 8 800] ------- [0:255 18:255 32 0] 3 [1 2] [0 2 0 0->16] [0 0 0 0->0]
r 15.063351362 _14_ RTR  --- 2 DSR 68 [0 ffffffff 8 800] ------- [0:255 18:255 32 0] 3 [1 2] [0 2 0 0->16] [0 0 0 0->0]
r 15.063351377 _12_ RTR  --- 2 DSR 68 [0 ffffffff 8 800] ------- [0:255 18:255 32 0] 3 [1 2] [0 2 0 0->16] [0 0 0 0->0]
r 15.063351557 _6_ RTR  --- 2 DSR 68 [0 ffffffff 8 800] ------- [0:255 18:255 32 0] 3 [1 2] [0 2 0 0->16] [0 0 0 0->0]
r 15.063351557 _18_ RTR  --- 2 DSR 68 [0 ffffffff 8 800] ------- [0:255 18:255 32 0] 3 [1 2] [0 2 0 0->16] [0 0 0 0->0]
r 15.063351636 _17_ RTR  --- 2 DSR 68 [0 ffffffff 8 800] ------- [0:255 18:255 32 0] 3 [1 2] [0 2 0 0->16] [0 0 0 0->0]
r 15.063351636 _11_ RTR  --- 2 DSR 68 [0 ffffffff 8 800] ------- [0:255 18:255 32 0] 3 [1 2] [0 2 0 0->16] [0 0 0 0->0]
r 15.063351636 _1_ RTR  --- 2 DSR 68 [0 ffffffff 8 800] ------- [0:255 18:255 32 0] 3 [1 2] [0 2 0 0->16] [0 0 0 0->0]
r 15.063351636 _19_ RTR  --- 2 DSR 68 [0 ffffffff 8 800] ------- [0:255 18:255 32 0] 3 [1 2] [0 2 0 0->16] [0 0 0 0->0]
s 15.063638578 _18_ RTR  --- 10 DSR 60 [0 0 0 0] ------- [18:255 0:255 254 13] 4 [0 2] [1 2 4 0->18] [0 0 0 0->0]
r 15.065015012 _12_ RTR  --- 8 DSR 60 [13a c 12 800] ------- [18:255 0:255 254 12] 4 [0 2] [1 2 4 0->18] [0 0 0 0->0]
f 15.065015012 _12_ RTR  --- 8 DSR 60 [13a c 12 800] ------- [18:255 0:255 253 11] 4 [0 2] [1 2 4 0->18] [0 0 0 0->0]
s 15.065937267 _18_ RTR  --- 12 DSR 60 [0 0 0 0] ------- [18:255 0:255 254 8] 4 [0 2] [1 2 4 0->18] [0 0 0 0->0]
r 15.066460033 _9_ RTR  --- 2 DSR 68 [0 ffffffff e 800] ------- [0:255 18:255 32 0] 3 [1 2] [0 2 0 0->16] [0 0 0 0->0]
r 15.066460033 _13_ RTR  --- 2 DSR 68 [0 ffffffff e 800] ------- [0:255 18:255 32 0] 3 [1 2] [0 2 0 0->16] [0 0 0 0->0]
r 15.066460033 _19_ RTR  --- 2 DSR 68 [0 ffffffff e 800] ------- [0:255 18:255 32 0] 3 [1 2] [0 2 0 0->16] [0 0 0 0->0]
r 15.066460171 _18_ RTR  --- 2 DSR 68 [0 ffffffff e 800] ------- [0:255 18:255 32 0] 3 [1 2] [0 2 0 0->16] [0 0 0 0->0]
r 15.066460171 _8_ RTR  --- 2 DSR 68 [0 ffffffff e 800] ------- [0:255 18:255 32 0] 3 [1 2] [0 2 0 0->16] [0 0 0 0->0]
r 15.066460366 _4_ RTR  --- 2 DSR 68 [0 ffffffff e 800] ------- [0:255 18:255 32 0] 3 [1 2] [0 2 0 0->16] [0 0 0 0->0]
r 15.066460387 _12_ RTR  --- 2 DSR 68 [0 ffffffff e 800] ------- [0:255 18:255 32 0] 3 [1 2] [0 2 0 0->16] [0 0 0 0->0]
r 15.066460445 _3_ RTR  --- 2 DSR 68 [0 ffffffff e 800] ------- [0:255 18:255 32 0] 3 [1 2] [0 2 0 0->16] [0 0 0 0->0]
r 15.066460445 _17_ RTR  --- 2 DSR 68 [0 ffffffff e 800] ------- [0:255 18:255 32 0] 3 [1 2] [0 2 0 0->16] [0 0 0 0->0]
r 15.066460445 _7_ RTR  --- 2 DSR 68 [0 ffffffff e 800] ------- [0:255 18:255 32 0] 3 [1 2] [0 2 0 0->16] [0 0 0 0->0]
r 15.067670366 _4_ RTR  --- 2 DSR 68 [0 ffffffff 9 800] ------- [0:255 18:255 32 0] 3 [1 2] [0 2 0 0->16] [0 0 0 0->0]
r 15.067670366 _8_ RTR  --- 2 DSR 68 [0 ffffffff 9 800] ------- [0:255 18:255 32 0] 3 [1 2] [0 2 0 0->16] [0 0 0 0->0]
r 15.067670366 _14_ RTR  --- 2 DSR 68 [0 ffffffff 9 800] ------- [0:255 18:255 32 0] 3 [1 2] [0 2 0 0->16] [0 0 0 0->0]
r 15.067670504 _13_ RTR  --- 2 DSR 68 [0 ffffffff 9 800] ------- [0:255 18:255 32 0] 3 [1 2] [0 2 0 0->16] [0 0 0 0->0]
r 15.067670504 _3_ RTR  --- 2 DSR 68 [0 ffffffff 9 800] ------- [0:255 18:255 32 0] 3 [1 2] [0 2 0 0->16] [0 0 0 0->0]
r 15.067670700 _7_ RTR  --- 2 DSR 68 [0 ffffffff 9 800] ------- [0:255 18:255 32 0] 3 [1 2] [0 2 0 0->16] [0 0 0 0->0]
r 15.067670700 _19_ RTR  --- 2 DSR 68 [0 ffffffff 9 800] ------- [0:255 18:255 32 0] 3 [1 2] [0 2 0 0->16] [0 0 0 0->0]
r 15.067670778 _18_ RTR  --- 2 DSR 68 [0 ffffffff 9 800] ------- [0:255 18:255 32 0] 3 [1 2] [0 2 0 0->16] [0 0 0 0->0]
r 15.067670778 _2_ RTR  --- 2 DSR 68 [0 ffffffff 9 800] ------- [0:255 18:255 32 0] 3 [1 2] [0 2 0 0->16] [0 0 0 0->0]
r 15.067670797 _12_ RTR  --- 2 DSR 68 [0 ffffffff 9 800] ------- [0:255 18:255 32 0] 3 [1 2] [0 2 0 0->16] [0 0 0 0->0]
r 15.069313736 _11_ RTR  --- 8 DSR 60 [13a b c 800] ------- [18:255 0:255 253 11] 4 [0 2] [1 2 4 0->18] [0 0 0 0->0]
f 15.069313736 _11_ RTR  --- 8 DSR 60 [13a b c 800] ------- [18:255 0:255 252 0] 4 [0 2] [1 2 4 0->18] [0 0 0 0->0]
s 15.070429357 _18_ RTR  --- 11 DSR 68 [0 0 0 0] ------- [18:255 0:255 254 19] 5 [0 2] [1 2 5 0->18] [0 0 0 0->0]
r 15.071271481 _13_ RTR  --- 10 DSR 60 [13a d 12 800] ------- [18:255 0:255 254 13] 4 [0 2] [1 2 4 0->18] [0 0 0 0->0]
f 15.071271481 _13_ RTR  --- 10 DSR 60 [13a d 12 800] ------- [18:255 0:255 253 11] 4 [0 2] [1 2 4 0->18] [0 0 0 0->0]
s 15.072661310 _18_ RTR  --- 14 DSR 60 [0 0 0 0] ------- [18:255 0:255 254 9] 4 [0 2] [1 2 4 0->18] [0 0 0 0->0]
r 15.073249481 _11_ RTR  --- 10 DSR 60 [13a b d 800] ------- [18:255 0:255 253 11] 4 [0 2] [1 2 4 0->18] [0 0 0 0->0]
f 15.073249481 _11_ RTR  --- 10 DSR 60 [13a b d 800] ------- [18:255 0:255 252 0] 4 [0 2] [1 2 4 0->18] [0 0 0 0->0]
r 15.074504148 _5_ RTR  --- 2 DSR 48 [0 ffffffff a 800] ------- [0:255 18:255 32 0] 2 [1 2] [0 2 0 0->16] [0 0 0 0->0]
r 15.074504148 _15_ RTR  --- 2 DSR 48 [0 ffffffff a 800] ------- [0:255 18:255 32 0] 2 [1 2] [0 2 0 0->16] [0 0 0 0->0]
r 15.074504148 _11_ RTR  --- 2 DSR 48 [0 ffffffff a 800] ------- [0:255 18:255 32 0] 2 [1 2] [0 2 0 0->16] [0 0 0 0->0]
r 15.074504286 _6_ RTR  --- 2 DSR 48 [0 ffffffff a 800] ------- [0:255 18:255 32 0] 2 [1 2] [0 2 0 0->16] [0 0 0 0->0]
r 15.074504286 _16_ RTR  --- 2 DSR 48 [0 ffffffff a 800] ------- [0:255 18:255 32 0] 2 [1 2] [0 2 0 0->16] [0 0 0 0->0]
r 15.074504460 _12_ RTR  --- 2 DSR 48 [0 ffffffff a 800] ------- [0:255 18:255 32 0] 2 [1 2] [0 2 0 0->16] [0 0 0 0->0]
r 15.074504481 _0_ RTR  --- 2 DSR 48 [0 ffffffff a 800] ------- [0:255 18:255 32 0] 2 [1 2] [0 2 0 0->16] [0 0 0 0->0]
r 15.074504560 _1_ RTR  --- 2 DSR 48 [0 ffffffff a 800] ------- [0:255 18:255 32 0] 2 [1 2] [0 2 0 0->16] [0 0 0 0->0]
r 15.074504560 _7_ RTR  --- 2 DSR 48 [0 ffffffff a 800] ------- [0:255 18:255 32 0] 2 [1 2] [0 2 0 0->16] [0 0 0 0->0]
r 15.074504560 _17_ RTR  --- 2 DSR 48 [0 ffffffff a 800] ------- [0:255 18:255 32 0] 2 [1 2] [0 2 0 0->16] [0 0 0 0->0]
s 15.076106001 _18_ RTR  --- 13 DSR 60 [0 0 0 0] ------- [18:255 0:255 254 14] 4 [0 2] [1 2 4 0->18] [0 0 0 0->0]
r 15.076184384 _0_ RTR  --- 3 DSR 52 [13a 0 b 800] ------- [18:255 0:255 253 0] 3 [0 2] [1 2 3 0->18] [0 0 0 0->0]
SFESTs 15.076184384 _0_ 0 [0 -> 18] 1(1) to 11 [0 |11 18 ]
SFESTs 15.076184384 _0_ 6 [0 -> 18] 1(1) to 11 [0 |11 18 ]
s 15.076184384 _0_ RTR  --- 0 cbr 552 [0 0 0 0] ------- [0:0 18:0 32 11] [0] 0 0
r 15.082438620 _11_ RTR  --- 0 cbr 552 [13a b 0 800] ------- [0:0 18:0 32 11] [0] 1 0