n -t * -s 0  -x 100 -y 200 -Z 0 -z 30  -v circle -c black
n -t * -s 1  -x 200 -y 200 -Z 0 -z 30  -v circle -c black
n -t * -s 2  -x 300 -y 200 -Z 0 -z 30  -v circle -c black
n -t * -s 3  -x 400 -y 200 -Z 0 -z 30  -v circle -c black
n -t * -s 4  -x 500 -y 200 -Z 0 -z 30  -v circle -c black
n -t * -s 5  -x 100 -y 300 -Z 0 -z 30  -v circle -c black
n -t * -s 6  -x 200 -y 300 -Z 0 -z 30  -v circle -c black
n -t * -s 7  -x 300 -y 300 -Z 0 -z 30  -v circle -c black
n -t * -s 8  -x 400 -y 300 -Z 0 -z 30  -v circle -c black
n -t * -s 9  -x 500 -y 300 -Z 0 -z 30  -v circle -c black
n -t * -s 10  -x 100 -y 400 -Z 0 -z 30  -v circle -c black
n -t * -s 11  -x 200 -y 400 -Z 0 -z 30  -v circle -c black
n -t * -s 12  -x 300 -y 400 -Z 0 -z 30  -v circle -c black
n -t * -s 13  -x 400 -y 400 -Z 0 -z 30  -v circle -c black
n -t * -s 14  -x 500 -y 400 -Z 0 -z 30  -v circle -c black
n -t * -s 15  -x 100 -y 500 -Z 0 -z 30  -v circle -c black
n -t * -s 16  -x 200 -y 500 -Z 0 -z 30  -v circle -c black
n -t * -s 17  -x 300 -y 500 -Z 0 -z 30  -v circle -c black
n -t * -s 18  -x 400 -y 500 -Z 0 -z 30  -v circle -c black
n -t * -s 19  -x 500 -y 500 -Z 0 -z 30  -v circle -c black
V -t * -v 1.0a5 -a 0
W -t * -x 500 -y 500
A -t * -n 1 -p 0 -o 0xffffffff -c 31 -a 1
A -t * -h 1 -m 2147483647 -s 0
n -t 13.000000 -s 12 -x 300.000000 -y 400.000000 -U -2.992376 -V 0.213741 -T 56.142675
+ -t 15.000000000 -s 0 -d -1 -p cbr -e 512 -c 2 -a 0 -i 0 -k AGT 
- -t 15.000000000 -s 0 -d -1 -p cbr -e 512 -c 2 -a 0 -i 0 -k AGT
h -t 15.000000000 -s 0 -d -1 -p cbr -e 512 -c 2 -a 0 -i 0 -k AGT
+ -t 15.009488615 -s 0 -d -1 -p DSR -e 32 -c 2 -a 0 -i 1 -k RTR 
- -t 15.009488615 -s 0 -d -1 -p DSR -e 32 -c 2 -a 0 -i 1 -k RTR
h -t 15.009488615 -s 0 -d -1 -p DSR -e 32 -c 2 -a 0 -i 1 -k RTR
+ -t 15.042559970 -s 0 -d -1 -p DSR -e 32 -c 2 -a 0 -i 2 -k RTR 
- -t 15.042559970 -s 0 -d -1 -p DSR -e 32 -c 2 -a 0 -i 2 -k RTR
h -t 15.042559970 -s 0 -d -1 -p DSR -e 32 -c 2 -a 0 -i 2 -k RTR
+ -t 15.046703250 -s 7 -d -1 -p DSR -e 48 -c 2 -a 0 -i 2 -k RTR 
- -t 15.046703250 -s 7 -d -1 -p DSR -e 48 -c 2 -a 0 -i 2 -k RTR
h -t 15.046703250 -s 7 -d -1 -p DSR -e 48 -c 2 -a 0 -i 2 -k RTR
+ -t 15.046901344 -s 11 -d -1 -p DSR -e 48 -c 2 -a 0 -i 2 -k RTR 
- -t 15.046901344 -s 11 -d -1 -p DSR -e 48 -c 2 -a 0 -i 2 -k RTR
h -t 15.046901344 -s 11 -d -1 -p DSR -e 48 -c 2 -a 0 -i 2 -k RTR
+ -t 15.047147925 -s 5 -d -1 -p DSR -e 48 -c 2 -a 0 -i 2 -k RTR 
- -t 15.047147925 -s 5 -d -1 -p DSR -e 48 -c 2 -a 0 -i 2 -k RTR
h -t 15.047147925 -s 5 -d -1 -p DSR -e 48 -c 2 -a 0 -i 2 -k RTR
+ -t 15.048104883 -s 12 -d -1 -p DSR -e 68 -c 2 -a 0 -i 2 -k RTR 
- -t 15.048104883 -s 12 -d -1 -p DSR -e 68 -c 2 -a 0 -i 2 -k RTR
h -t 15.048104883 -s 12 -d -1 -p DSR -e 68 -c 2 -a 0 -i 2 -k RTR
+ -t 15.048788049 -s 18 -d 11 -p DSR -e 52 -c 2 -a 0 -i 3 -k RTR 
- -t 15.048788049 -s 18 -d 11 -p DSR -e 52 -c 2 -a 0 -i 3 -k RTR
h -t 15.048788049 -s 18 -d 11 -p DSR -e 52 -c 2 -a 0 -i 3 -k RTR
+ -t 15.049024434 -s 17 -d -1 -p DSR -e 68 -c 2 -a 0 -i 2 -k RTR 
- -t 15.049024434 -s 17 -d -1 -p DSR -e 68 -c 2 -a 0 -i 2 -k RTR
h -t 15.049024434 -s 17 -d -1 -p DSR -e 68 -c 2 -a 0 -i 2 -k RTR
+ -t 15.049929438 -s 2 -d -1 -p DSR -e 48 -c 2 -a 0 -i 2 -k RTR 
- -t 15.049929438 -s 2 -d -1 -p DSR -e 48 -c 2 -a 0 -i 2 -k RTR
h -t 15.049929438 -s 2 -d -1 -p DSR -e 48 -c 2 -a 0 -i 2 -k RTR
+ -t 15.050036087 -s 6 -d -1 -p DSR -e 48 -c 2 -a 0 -i 2 -k RTR 
- -t 15.050036087 -s 6 -d -1 -p DSR -e 48 -c 2 -a 0 -i 2 -k RTR
h -t 15.050036087 -s 6 -d -1 -p DSR -e 48 -c 2 -a 0 -i 2 -k RTR
+ -t 15.051819132 -s 15 -d -1 -p DSR -e 68 -c 2 -a 0 -i 2 -k RTR 
- -t 15.051819132 -s 15 -d -1 -p DSR -e 68 -c 2 -a 0 -i 2 -k RTR
h -t 15.051819132 -s 15 -d -1 -p DSR -e 68 -c 2 -a 0 -i 2 -k RTR
+ -t 15.051940517 -s 1 -d -1 -p DSR -e 48 -c 2 -a 0 -i 2 -k RTR 
- -t 15.051940517 -s 1 -d -1 -p DSR -e 48 -c 2 -a 0 -i 2 -k RTR
h -t 15.051940517 -s 1 -d -1 -p DSR -e 48 -c 2 -a 0 -i 2 -k RTR
+ -t 15.052067786 -s 0 -d -1 -p cbr -e 512 -c 2 -a 0 -i 6 -k AGT 
- -t 15.052067786 -s 0 -d -1 -p cbr -e 512 -c 2 -a 0 -i 6 -k AGT
h -t 15.052067786 -s 0 -d -1 -p cbr -e 512 -c 2 -a 0 -i 6 -k AGT
+ -t 15.052647270 -s 10 -d -1 -p DSR -e 48 -c 2 -a 0 -i 2 -k RTR 
- -t 15.052647270 -s 10 -d -1 -p DSR -e 48 -c 2 -a 0 -i 2 -k RTR
h -t 15.052647270 -s 10 -d -1 -p DSR -e 48 -c 2 -a 0 -i 2 -k RTR
+ -t 15.052739776 -s 16 -d -1 -p DSR -e 68 -c 2 -a 0 -i 2 -k RTR 
- -t 15.052739776 -s 16 -d -1 -p DSR -e 68 -c 2 -a 0 -i 2 -k RTR
h -t 15.052739776 -s 16 -d -1 -p DSR -e 68 -c 2 -a 0 -i 2 -k RTR
+ -t 15.054013473 -s 18 -d 17 -p DSR -e 60 -c 2 -a 0 -i 5 -k RTR 
- -t 15.054013473 -s 18 -d 17 -p DSR -e 60 -c 2 -a 0 -i 5 -k RTR
h -t 15.054013473 -s 18 -d 17 -p DSR -e 60 -c 2 -a 0 -i 5 -k RTR
+ -t 15.054413408 -s 19 -d -1 -p DSR -e 92 -c 2 -a 0 -i 2 -k RTR 
- -t 15.054413408 -s 19 -d -1 -p DSR -e 92 -c 2 -a 0 -i 2 -k RTR
h -t 15.054413408 -s 19 -d -1 -p DSR -e 92 -c 2 -a 0 -i 2 -k RTR
+ -t 15.055141127 -s 4 -d -1 -p DSR -e 68 -c 2 -a 0 -i 2 -k RTR 
- -t 15.055141127 -s 4 -d -1 -p DSR -e 68 -c 2 -a 0 -i 2 -k RTR
h -t 15.055141127 -s 4 -d -1 -p DSR -e 68 -c 2 -a 0 -i 2 -k RTR
+ -t 15.055157672 -s 8 -d -1 -p DSR -e 68 -c 2 -a 0 -i 2 -k RTR 
- -t 15.055157672 -s 8 -d -1 -p DSR -e 68 -c 2 -a 0 -i 2 -k RTR
h -t 15.055157672 -s 8 -d -1 -p DSR -e 68 -c 2 -a 0 -i 2 -k RTR
+ -t 15.055744880 -s 18 -d 7 -p DSR -e 52 -c 2 -a 0 -i 4 -k RTR 
- -t 15.055744880 -s 18 -d 7 -p DSR -e 52 -c 2 -a 0 -i 4 -k RTR
h -t 15.055744880 -s 18 -d 7 -p DSR -e 52 -c 2 -a 0 -i 4 -k RTR
+ -t 15.056190592 -s 9 -d -1 -p DSR -e 68 -c 2 -a 0 -i 2 -k RTR 
- -t 15.056190592 -s 9 -d -1 -p DSR -e 68 -c 2 -a 0 -i 2 -k RTR
h -t 15.056190592 -s 9 -d -1 -p DSR -e 68 -c 2 -a 0 -i 2 -k RTR
+ -t 15.056313657 -s 14 -d -1 -p DSR -e 68 -c 2 -a 0 -i 2 -k RTR 
- -t 15.056313657 -s 14 -d -1 -p DSR -e 68 -c 2 -a 0 -i 2 -k RTR
h -t 15.056313657 -s 14 -d -1 -p DSR -e 68 -c 2 -a 0 -i 2 -k RTR
+ -t 15.056829228 -s 18 -d 12 -p DSR -e 60 -c 2 -a 0 -i 8 -k RTR 
- -t 15.056829228 -s 18 -d 12 -p DSR -e 60 -c 2 -a 0 -i 8 -k RTR
h -t 15.056829228 -s 18 -d 12 -p DSR -e 60 -c 2 -a 0 -i 8 -k RTR
+ -t 15.057619689 -s 3 -d -1 -p DSR -e 68 -c 2 -a 0 -i 2 -k RTR 
- -t 15.057619689 -s 3 -d -1 -p DSR -e 68 -c 2 -a 0 -i 2 -k RTR
h -t 15.057619689 -s 3 -d -1 -p DSR -e 68 -c 2 -a 0 -i 2 -k RTR
+ -t 15.057893217 -s 11 -d 0 -p DSR -e 52 -c 2 -a 0 -i 3 -k RTR 
- -t 15.057893217 -s 11 -d 0 -p DSR -e 52 -c 2 -a 0 -i 3 -k RTR
h -t 15.057893217 -s 11 -d 0 -p DSR -e 52 -c 2 -a 0 -i 3 -k RTR
+ -t 15.057930426 -s 13 -d -1 -p DSR -e 68 -c 2 -a 0 -i 2 -k RTR 
- -t 15.057930426 -s 13 -d -1 -p DSR -e 68 -c 2 -a 0 -i 2 -k RTR
h -t 15.057930426 -s 13 -d -1 -p DSR -e 68 -c 2 -a 0 -i 2 -k RTR
+ -t 15.062906336 -s 18 -d 16 -p DSR -e 60 -c 2 -a 0 -i 9 -k RTR 
- -t 15.062906336 -s 18 -d 16 -p DSR -e 60 -c 2 -a 0 -i 9 -k RTR
h -t 15.062906336 -s 18 -d 16 -p DSR -e 60 -c 2 -a 0 -i 9 -k RTR
+ -t 15.063638578 -s 18 -d 13 -p DSR -e 60 -c 2 -a 0 -i 10 -k RTR 
- -t 15.063638578 -s 18 -d 13 -p DSR -e 60 -c 2 -a 0 -i 10 -k RTR
h -t 15.063638578 -s 18 -d 13 -p DSR -e 60 -c 2 -a 0 -i 10 -k RTR
+ -t 15.065015012 -s 12 -d 11 -p DSR -e 60 -c 2 -a 0 -i 8 -k RTR 
- -t 15.065015012 -s 12 -d 11 -p DSR -e 60 -c 2 -a 0 -i 8 -k RTR
h -t 15.065015012 -s 12 -d 11 -p DSR -e 60 -c 2 -a 0 -i 8 -k RTR
+ -t 15.065937267 -s 18 -d 8 -p DSR -e 60 -c 2 -a 0 -i 12 -k RTR 
- -t 15.065937267 -s 18 -d 8 -p DSR -e 60 -c 2 -a 0 -i 12 -k RTR
h -t 15.065937267 -s 18 -d 8 -p DSR -e 60 -c 2 -a 0 -i 12 -k RTR
+ -t 15.069313736 -s 11 -d 0 -p DSR -e 60 -c 2 -a 0 -i 8 -k RTR 
- -t 15.069313736 -s 11 -d 0 -p DSR -e 60 -c 2 -a 0 -i 8 -k RTR
h -t 15.069313736 -s 11 -d 0 -p DSR -e 60 -c 2 -a 0 -i 8 -k RTR
+ -t 15.070429357 -s 18 -d 19 -p DSR -e 68 -c 2 -a 0 -i 11 -k RTR 
- -t 15.070429357 -s 18 -d 19 -p DSR -e 68 -c 2 -a 0 -i 11 -k RTR
h -t 15.070429357 -s 18 -d 19 -p DSR -e 68 -c 2 -a 0 -i 11 -k RTR
+ -t 15.071271481 -s 13 -d 11 -p DSR -e 60 -c 2 -a 0 -i 10 -k RTR 
- -t 15.071271481 -s 13 -d 11 -p DSR -e 60 -c 2 -a 0 -i 10 -k RTR
h -t 15.071271481 -s 13 -d 11 -p DSR -e 60 -c 2 -a 0 -i 10 -k RTR
+ -t 15.072661310 -s 18 -d 9 -p DSR -e 60 -c 2 -a 0 -i 14 -k RTR 
- -t 15.072661310 -s 18 -d 9 -p DSR -e 60 -c 2 -a 0 -i 14 -k RTR
h -t 15.072661310 -s 18 -d 9 -p DSR -e 60 -c 2 -a 0 -i 14 -k RTR
+ -t 15.073249481 -s 11 -d 0 -p DSR -e 60 -c 2 -a 0 -i 10 -k RTR 
- -t 15.073249481 -s 11 -d 0 -p DSR -e 60 -c 2 -a 0 -i 10 -k RTR
h -t 15.073249481 -s 11 -d 0 -p DSR -e 60 -c 2 -a 0 -i 10 -k RTR
+ -t 15.076106001 -s 18 -d 14 -p DSR -e 60 -c 2 -a 0 -i 13 -k RTR 
- -t 15.076106001 -s 18 -d 14 -p DSR -e 60 -c 2 -a 0 -i 13 -k RTR
h -t 15.076106001 -s 18 -d 14 -p DSR -e 60 -c 2 -a 0 -i 13 -k RTR
+ -t 15.076184384 -s 0 -d 11 -p cbr -e 552 -c 2 -a 0 -i 0 -k RTR 
- -t 15.076184384 -s 0 -d 11 -p cbr -e 552 -c 2 -a 0 -i 0 -k RTR
h -t 15.076184384 -s 0 -d 11 -p cbr -e 552 -c 2 -a 0 -i 0 -k RTR
+ -t 15.082438620 -s 11 -d 18 -p cbr -e 552 -c 2 -a 0 -i 0 -k RTR 
- -t 15.082438620 -s 11 -d 18 -p cbr -e 552 -c 2 -a 0 -i 0 -k RTR
h -t 15.082438620 -s 11 -d 18 -p cbr -e 552 -c 2 -a 0 -i 0 -k RTR
r -t 15.093250819 -s 18 -d 18 -p cbr -e 512 -c 2 -a 0 -i 0 -k AGT
+ -t 15.095491819 -s 19 -d 17 -p DSR -e 68 -c 2 -a 0 -i 11 -k RTR 
- -t 15.095491819 -s 19 -d 17 -p DSR -e 68 -c 2 -a 0 -i 11 -k RTR
h -t 15.095491819 -s 19 -d 17 -p DSR -e 68 -c 2 -a 0 -i 11 -k RTR
+ -t 15.097549566 -s 14 -d 7 -p DSR -e 60 -c 2 -a 0 -i 13 -k RTR 
- -t 15.097549566 -s 14 -d 7 -p DSR -e 60 -c 2 -a 0 -i 13 -k RTR
h -t 15.097549566 -s 14 -d 7 -p DSR -e 60 -c 2 -a 0 -i 13 -k RTR
+ -t 15.099667802 -s 7 -d 0 -p DSR -e 60 -c 2 -a 0 -i 13 -k RTR 
- -t 15.099667802 -s 7 -d 0 -p DSR -e 60 -c 2 -a 0 -i 13 -k RTR
h -t 15.099667802 -s 7 -d 0 -p DSR -e 60 -c 2 -a 0 -i 13 -k RTR
+ -t 15.101826784 -s 9 -d 7 -p DSR -e 60 -c 2 -a 0 -i 14 -k RTR 
- -t 15.101826784 -s 9 -d 7 -p DSR -e 60 -c 2 -a 0 -i 14 -k RTR
h -t 15.101826784 -s 9 -d 7 -p DSR -e 60 -c 2 -a 0 -i 14 -k RTR
+ -t 15.106184384 -s 0 -d 11 -p cbr -e 552 -c 2 -a 0 -i 6 -k RTR 
- -t 15.106184384 -s 0 -d 11 -p cbr -e 552 -c 2 -a 0 -i 6 -k RTR
h -t 15.106184384 -s 0 -d 11 -p cbr -e 552 -c 2 -a 0 -i 6 -k RTR
+ -t 15.106353353 -s 17 -d 11 -p DSR -e 68 -c 2 -a 0 -i 11 -k RTR 
- -t 15.106353353 -s 17 -d 11 -p DSR -e 68 -c 2 -a 0 -i 11 -k RTR
h -t 15.106353353 -s 17 -d 11 -p DSR -e 68 -c 2 -a 0 -i 11 -k RTR
+ -t 15.108631686 -s 8 -d 11 -p DSR -e 60 -c 2 -a 0 -i 12 -k RTR 
- -t 15.108631686 -s 8 -d 11 -p DSR -e 60 -c 2 -a 0 -i 12 -k RTR
h -t 15.108631686 -s 8 -d 11 -p DSR -e 60 -c 2 -a 0 -i 12 -k RTR
+ -t 15.110673846 -s 11 -d 0 -p DSR -e 68 -c 2 -a 0 -i 11 -k RTR 
- -t 15.110673846 -s 11 -d 0 -p DSR -e 68 -c 2 -a 0 -i 11 -k RTR
h -t 15.110673846 -s 11 -d 0 -p DSR -e 68 -c 2 -a 0 -i 11 -k RTR
+ -t 15.119937809 -s 11 -d 18 -p cbr -e 552 -c 2 -a 0 -i 6 -k RTR 
- -t 15.119937809 -s 11 -d 18 -p cbr -e 552 -c 2 -a 0 -i 6 -k RTR
h -t 15.119937809 -s 11 -d 18 -p cbr -e 552 -c 2 -a 0 -i 6 -k RTR
r -t 15.127809459 -s 18 -d 18 -p cbr -e 512 -c 2 -a 0 -i 6 -k AGT
+ -t 15.129867459 -s 16 -d 11 -p DSR -e 60 -c 2 -a 0 -i 9 -k RTR 
- -t 15.129867459 -s 16 -d 11 -p DSR -e 60 -c 2 -a 0 -i 9 -k RTR
h -t 15.129867459 -s 16 -d 11 -p DSR -e 60 -c 2 -a 0 -i 9 -k RTR
+ -t 15.131882362 -s 7 -d 0 -p DSR -e 52 -c 2 -a 0 -i 4 -k RTR 
- -t 15.131882362 -s 7 -d 0 -p DSR -e 52 -c 2 -a 0 -i 4 -k RTR
h -t 15.131882362 -s 7 -d 0 -p DSR -e 52 -c 2 -a 0 -i 4 -k RTR
+ -t 15.136299972 -s 7 -d 0 -p DSR -e 60 -c 2 -a 0 -i 14 -k RTR 
- -t 15.136299972 -s 7 -d 0 -p DSR -e 60 -c 2 -a 0 -i 14 -k RTR
h -t 15.136299972 -s 7 -d 0 -p DSR -e 60 -c 2 -a 0 -i 14 -k RTR
+ -t 15.138367507 -s 11 -d 0 -p DSR -e 60 -c 2 -a 0 -i 9 -k RTR 
- -t 15.138367507 -s 11 -d 0 -p DSR -e 60 -c 2 -a 0 -i 9 -k RTR
h -t 15.138367507 -s 11 -d 0 -p DSR -e 60 -c 2 -a 0 -i 9 -k RTR
+ -t 15.143935648 -s 17 -d 11 -p DSR -e 60 -c 2 -a 0 -i 5 -k RTR 
- -t 15.143935648 -s 17 -d 11 -p DSR -e 60 -c 2 -a 0 -i 5 -k RTR
h -t 15.143935648 -s 17 -d 11 -p DSR -e 60 -c 2 -a 0 -i 5 -k RTR
+ -t 15.146113063 -s 11 -d 0 -p DSR -e 60 -c 2 -a 0 -i 5 -k RTR 
- -t 15.146113063 -s 11 -d 0 -p DSR -e 60 -c 2 -a 0 -i 5 -k RTR
h -t 15.146113063 -s 11 -d 0 -p DSR -e 60 -c 2 -a 0 -i 5 -k RTR
+ -t 15.152673570 -s 11 -d 0 -p DSR -e 60 -c 2 -a 0 -i 12 -k RTR 
- -t 15.152673570 -s 11 -d 0 -p DSR -e 60 -c 2 -a 0 -i 12 -k RTR
h -t 15.152673570 -s 11 -d 0 -p DSR -e 60 -c 2 -a 0 -i 12 -k RTR
+ -t 15.164951869 -s 0 -d -1 -p cbr -e 512 -c 2 -a 0 -i 17 -k AGT 
- -t 15.164951869 -s 0 -d -1 -p cbr -e 512 -c 2 -a 0 -i 17 -k AGT
h -t 15.164951869 -s 0 -d -1 -p cbr -e 512 -c 2 -a 0 -i 17 -k AGT
+ -t 15.164951869 -s 0 -d 11 -p cbr -e 552 -c 2 -a 0 -i 17 -k RTR 
- -t 15.164951869 -s 0 -d 11 -p cbr -e 552 -c 2 -a 0 -i 17 -k RTR
h -t 15.164951869 -s 0 -d 11 -p cbr -e 552 -c 2 -a 0 -i 17 -k RTR
+ -t 15.170742105 -s 11 -d 18 -p cbr -e 552 -c 2 -a 0 -i 17 -k RTR 
- -t 15.170742105 -s 11 -d 18 -p cbr -e 552 -c 2 -a 0 -i 17 -k RTR
h -t 15.170742105 -s 11 -d 18 -p cbr -e 552 -c 2 -a 0 -i 17 -k RTR
r -t 15.177136341 -s 18 -d 18 -p cbr -e 512 -c 2 -a 0 -i 17 -k AGT
+ -t 15.275545875 -s 0 -d -1 -p cbr -e 512 -c 2 -a 0 -i 18 -k AGT 
- -t 15.275545875 -s 0 -d -1 -p cbr -e 512 -c 2 -a 0 -i 18 -k AGT
h -t 15.275545875 -s 0 -d -1 -p cbr -e 512 -c 2 -a 0 -i 18 -k AGT
+ -t 15.275545875 -s 0 -d 11 -p cbr -e 532 -c 2 -a 0 -i 18 -k RTR 
- -t 15.275545875 -s 0 -d 11 -p cbr -e 532 -c 2 -a 0 -i 18 -k RTR
h -t 15.275545875 -s 0 -d 11 -p cbr -e 532 -c 2 -a 0 -i 18 -k RTR
+ -t 15.281216111 -s 11 -d 18 -p cbr -e 532 -c 2 -a 0 -i 18 -k RTR 
- -t 15.281216111 -s 11 -d 18 -p cbr -e 532 -c 2 -a 0 -i 18 -k RTR
h -t 15.281216111 -s 11 -d 18 -p cbr -e 532 -c 2 -a 0 -i 18 -k RTR
r -t 15.286950347 -s 18 -d 18 -p cbr -e 512 -c 2 -a 0 -i 18 -k AGT
+ -t 15.418563091 -s 0 -d -1 -p cbr -e 512 -c 2 -a 0 -i 19 -k AGT 
- -t 15.418563091 -s 0 -d -1 -p cbr -e 512 -c 2 -a 0 -i 19 -k AGT
h -t 15.418563091 -s 0 -d -1 -p cbr -e 512 -c 2 -a 0 -i 19 -k AGT
+ -t 15.418563091 -s 0 -d 11 -p cbr -e 532 -c 2 -a 0 -i 19 -k RTR 
- -t 15.418563091 -s 0 -d 11 -p cbr -e 532 -c 2 -a 0 -i 19 -k RTR
h -t 15.418563091 -s 0 -d 11 -p cbr -e 532 -c 2 -a 0 -i 19 -k RTR
+ -t 15.424393327 -s 11 -d 18 -p cbr -e 532 -c 2 -a 0 -i 19 -k RTR 
- -t 15.424393327 -s 11 -d 18 -p cbr -e 532 -c 2 -a 0 -i 19 -k RTR
h -t 15.424393327 -s 11 -d 18 -p cbr -e 532 -c 2 -a 0 -i 19 -k RTR
r -t 15.430627563 -s 18 -d 18 -p cbr -e 512 -c 2 -a 0 -i 19 -k AGT
+ -t 15.521485403 -s 0 -d -1 -p cbr -e 512 -c 2 -a 0 -i 20 -k AGT 
- -t 15.521485403 -s 0 -d -1 -p cbr -e 512 -c 2 -a 0 -i 20 -k AGT
h -t 15.521485403 -s 0 -d -1 -p cbr -e 512 -c 2 -a 0 -i 20 -k AGT
+ -t 15.521485403 -s 0 -d 11 -p cbr -e 532 -c 2 -a 0 -i 20 -k RTR 
- -t 15.521485403 -s 0 -d 11 -p cbr -e 532 -c 2 -a 0 -i 20 -k RTR
h -t 15.521485403 -s 0 -d 11 -p cbr -e 532 -c 2 -a 0 -i 20 -k RTR
+ -t 15.527155639 -s 11 -d 18 -p cbr -e 532 -c 2 -a 0 -i 20 -k RTR 
- -t 15.527155639 -s 11 -d 18 -p cbr -e 532 -c 2 -a 0 -i 20 -k RTR
h -t 15.527155639 -s 11 -d 18 -p cbr -e 532 -c 2 -a 0 -i 20 -k RTR
r -t 15.532929875 -s 18 -d 18 -p cbr -e 512 -c 2 -a 0 -i 20 -k AGT
+ -t 15.662644938 -s 0 -d -1 -p cbr -e 512 -c 2 -a 0 -i 21 -k AGT 
- -t 15.662644938 -s 0 -d -1 -p cbr -e 512 -c 2 -a 0 -i 21 -k AGT
h -t 15.662644938 -s 0 -d -1 -p cbr -e 512 -c 2 -a 0 -i 21 -k AGT
+ -t 15.662644938 -s 0 -d 11 -p cbr -e 532 -c 2 -a 0 -i 21 -k RTR 
- -t 15.662644938 -s 0 -d 11 -p cbr -e 532 -c 2 -a 0 -i 21 -k RTR
h -t 15.662644938 -s 0 -d 11 -p cbr -e 532 -c 2 -a 0 -i 21 -k RTR
+ -t 15.668475174 -s 11 -d 18 -p cbr -e 532 -c 2 -a 0 -i 21 -k RTR 
- -t 15.668475174 -s 11 -d 18 -p cbr -e 532 -c 2 -a 0 -i 21 -k RTR
h -t 15.668475174 -s 11 -d 18 -p cbr -e 532 -c 2 -a 0 -i 21 -k RTR
r -t 15.674689410 -s 18 -d 18 -p cbr -e 512 -c 2 -a 0 -i 21 -k AGT
+ -t 15.774371853 -s 0 -d -1 -p cbr -e 512 -c 2 -a 0 -i 22 -k AGT 
- -t 15.774371853 -s 0 -d -1 -p cbr -e 512 -c 2 -a 0 -i 22 -k AGT
h -t 15.774371853 -s 0 -d -1 -p cbr -e 512 -c 2 -a 0 -i 22 -k AGT
+ -t 15.774371853 -s 0 -d 11 -p cbr -e 532 -c 2 -a 0 -i 22 -k RTR 
- -t 15.774371853 -s 0 -d 11 -p cbr -e 532 -c 2 -a 0 -i 22 -k RTR
h -t 15.774371853 -s 0 -d 11 -p cbr -e 532 -c 2 -a 0 -i 22 -k RTR
+ -t 15.780102089 -s 11 -d 18 -p cbr -e 532 -c 2 -a 0 -i 22 -k RTR 
- -t 15.780102089 -s 11 -d 18 -p cbr -e 532 -c 2 -a 0 -i 22 -k RTR
h -t 15.780102089 -s 11 -d 18 -p cbr -e 532 -c 2 -a 0 -i 22 -k RTR
r -t 15.785876325 -s 18 -d 18 -p cbr -e 512 -c 2 -a 0 -i 22 -k AGT
+ -t 15.894607173 -s 0 -d -1 -p cbr -e 512 -c 2 -a 0 -i 23 -k AGT 
- -t 15.894607173 -s 0 -d -1 -p cbr -e 512 -c 2 -a 0 -i 23 -k AGT
h -t 15.894607173 -s 0 -d -1 -p cbr -e 512 -c 2 -a 0 -i 23 -k AGT
+ -t 15.894607173 -s 0 -d 11 -p cbr -e 532 -c 2 -a 0 -i 23 -k RTR 
- -t 15.894607173 -s 0 -d 11 -p cbr -e 532 -c 2 -a 0 -i 23 -k RTR
h -t 15.894607173 -s 0 -d 11 -p cbr -e 532 -c 2 -a 0 -i 23 -k RTR
+ -t 15.900357409 -s 11 -d 18 -p cbr -e 532 -c 2 -a 0 -i 23 -k RTR 
- -t 15.900357409 -s 11 -d 18 -p cbr -e 532 -c 2 -a 0 -i 23 -k RTR
h -t 15.900357409 -s 11 -d 18 -p cbr -e 532 -c 2 -a 0 -i 23 -k RTR
r -t 15.906311645 -s 18 -d 18 -p cbr -e 512 -c 2 -a 0 -i 23 -k AGT
+ -t 15.953897720 -s 0 -d -1 -p cbr -e 512 -c 2 -a 0 -i 24 -k AGT 
- -t 15.953897720 -s 0 -d -1 -p cbr -e 512 -c 2 -a 0 -i 24 -k AGT
h -t 15.953897720 -s 0 -d -1 -p cbr -e 512 -c 2 -a 0 -i 24 -k AGT
+ -t 15.953897720 -s 0 -d 11 -p cbr -e 532 -c 2 -a 0 -i 24 -k RTR 
- -t 15.953897720 -s 0 -d 11 -p cbr -e 532 -c 2 -a 0 -i 24 -k RTR
h -t 15.953897720 -s 0 -d 11 -p cbr -e 532 -c 2 -a 0 -i 24 -k RTR
+ -t 15.959827956 -s 11 -d 18 -p cbr -e 532 -c 2 -a 0 -i 24 -k RTR 
- -t 15.959827956 -s 11 -d 18 -p cbr -e 532 -c 2 -a 0 -i 24 -k RTR
h -t 15.959827956 -s 11 -d 18 -p cbr -e 532 -c 2 -a 0 -i 24 -k RTR
r -t 15.965782192 -s 18 -d 18 -p cbr -e 512 -c 2 -a 0 -i 24 -k AGT
+ -t 16.033467250 -s 0 -d -1 -p cbr -e 512 -c 2 -a 0 -i 25 -k AGT 
- -t 16.033467250 -s 0 -d -1 -p cbr -e 512 -c 2 -a 0 -i 25 -k AGT
h -t 16.033467250 -s 0 -d -1 -p cbr -e 512 -c 2 -a 0 -i 25 -k AGT
+ -t 16.033467250 -s 0 -d 11 -p cbr -e 532 -c 2 -a 0 -i 25 -k RTR 
- -t 16.033467250 -s 0 -d 11 -p cbr -e 532 -c 2 -a 0 -i 25 -k RTR
h -t 16.033467250 -s 0 -d 11 -p cbr -e 532 -c 2 -a 0 -i 25 -k RTR
+ -t 16.039397487 -s 11 -d 18 -p cbr -e 532 -c 2 -a 0 -i 25 -k RTR 
- -t 16.039397487 -s 11 -d 18 -p cbr -e 532 -c 2 -a 0 -i 25 -k RTR
h -t 16.039397487 -s 11 -d 18 -p cbr -e 532 -c 2 -a 0 -i 25 -k RTR
r -t 16.045711723 -s 18 -d 18 -p cbr -e 512 -c 2 -a 0 -i 25 -k AGT
+ -t 16.109923439 -s 0 -d -1 -p cbr -e 512 -c 2 -a 0 -i 26 -k AGT 
- -t 16.109923439 -s 0 -d -1 -p cbr -e 512 -c 2 -a 0 -i 26 -k AGT
h -t 16.109923439 -s 0 -d -1 -p cbr -e 512 -c 2 -a 0 -i 26 -k AGT
+ -t 16.109923439 -s 0 -d 11 -p cbr -e 532 -c 2 -a 0 -i 26 -k RTR 
- -t 16.109923439 -s 0 -d 11 -p cbr -e 532 -c 2 -a 0 -i 26 -k RTR
h -t 16.109923439 -s 0 -d 11 -p cbr -e 532 -c 2 -a 0 -i 26 -k RTR
+ -t 16.115453675 -s 11 -d 18 -p cbr -e 532 -c 2 -a 0 -i 26 -k RTR 
- -t 16.115453675 -s 11 -d 18 -p cbr -e 532 -c 2 -a 0 -i 26 -k RTR
h -t 16.115453675 -s 11 -d 18 -p cbr -e 532 -c 2 -a 0 -i 26 -k RTR
r -t 16.121267911 -s 18 -d 18 -p cbr -e 512 -c 2 -a 0 -i 26 -k AGT
+ -t 16.209093784 -s 0 -d -1 -p cbr -e 512 -c 2 -a 0 -i 27 -k AGT 
- -t 16.209093784 -s 0 -d -1 -p cbr -e 512 -c 2 -a 0 -i 27 -k AGT
h -t 16.209093784 -s 0 -d -1 -p cbr -e 512 -c 2 -a 0 -i 27 -k AGT
+ -t 16.209093784 -s 0 -d 11 -p cbr -e 532 -c 2 -a 0 -i 27 -k RTR 
- -t 16.209093784 -s 0 -d 11 -p cbr -e 532 -c 2 -a 0 -i 27 -k RTR
h -t 16.209093784 -s 0 -d 11 -p cbr -e 532 -c 2 -a 0 -i 27 -k RTR
+ -t 16.214744020 -s 11 -d 18 -p cbr -e 532 -c 2 -a 0 -i 27 -k RTR 
- -t 16.214744020 -s 11 -d 18 -p cbr -e 532 -c 2 -a 0 -i 27 -k RTR
h -t 16.214744020 -s 11 -d 18 -p cbr -e 532 -c 2 -a 0 -i 27 -k RTR
r -t 16.220878256 -s 18 -d 18 -p cbr -e 512 -c 2 -a 0 -i 27 -k AGT
+ -t 16.307315635 -s 0 -d -1 -p cbr -e 512 -c 2 -a 0 -i 28 -k AGT 
- -t 16.307315635 -s 0 -d -1 -p cbr -e 512 -c 2 -a 0 -i 28 -k AGT
h -t 16.307315635 -s 0 -d -1 -p cbr -e 512 -c 2 -a 0 -i 28 -k AGT
+ -t 16.307315635 -s 0 -d 11 -p cbr -e 532 -c 2 -a 0 -i 28 -k RTR 
- -t 16.307315635 -s 0 -d 11 -p cbr -e 532 -c 2 -a 0 -i 28 -k RTR
h -t 16.307315635 -s 0 -d 11 -p cbr -e 532 -c 2 -a 0 -i 28 -k RTR
+ -t 16.312885871 -s 11 -d 18 -p cbr -e 532 -c 2 -a 0 -i 28 -k RTR 
- -t 16.312885871 -s 11 -d 18 -p cbr -e 532 -c 2 -a 0 -i 28 -k RTR
h -t 16.312885871 -s 11 -d 18 -p cbr -e 532 -c 2 -a 0 -i 28 -k RTR
r -t 16.318620107 -s 18 -d 18 -p cbr -e 512 -c 2 -a 0 -i 28 -k AGT
+ -t 16.438490710 -s 0 -d -1 -p cbr -e 512 -c 2 -a 0 -i 29 -k AGT 
- -t 16.438490710 -s 0 -d -1 -p cbr -e 512 -c 2 -a 0 -i 29 -k AGT
h -t 16.438490710 -s 0 -d -1 -p cbr -e 512 -c 2 -a 0 -i 29 -k AGT
+ -t 16.438490710 -s 0 -d 11 -p cbr -e 532 -c 2 -a 0 -i 29 -k RTR 
- -t 16.438490710 -s 0 -d 11 -p cbr -e 532 -c 2 -a 0 -i 29 -k RTR
h -t 16.438490710 -s 0 -d 11 -p cbr -e 532 -c 2 -a 0 -i 29 -k RTR
+ -t 16.444300946 -s 11 -d 18 -p cbr -e 532 -c 2 -a 0 -i 29 -k RTR 
- -t 16.444300946 -s 11 -d 18 -p cbr -e 532 -c 2 -a 0 -i 29 -k RTR
h -t 16.444300946 -s 11 -d 18 -p cbr -e 532 -c 2 -a 0 -i 29 -k RTR
r -t 16.450395182 -s 18 -d 18 -p cbr -e 512 -c 2 -a 0 -i 29 -k AGT
+ -t 16.490859318 -s 0 -d -1 -p cbr -e 512 -c 2 -a 0 -i 30 -k AGT 
- -t 16.490859318 -s 0 -d -1 -p cbr -e 512 -c 2 -a 0 -i 30 -k AGT
h -t 16.490859318 -s 0 -d -1 -p cbr -e 512 -c 2 -a 0 -i 30 -k AGT
+ -t 16.490859318 -s 0 -d 11 -p cbr -e 532 -c 2 -a 0 -i 30 -k RTR 
- -t 16.490859318 -s 0 -d 11 -p cbr -e 532 -c 2 -a 0 -i 30 -k RTR
h -t 16.490859318 -s 0 -d 11 -p cbr -e 532 -c 2 -a 0 -i 30 -k RTR
+ -t 16.496509555 -s 11 -d 18 -p cbr -e 532 -c 2 -a 0 -i 30 -k RTR 
- -t 16.496509555 -s 11 -d 18 -p cbr -e 532 -c 2 -a 0 -i 30 -k RTR
h -t 16.496509555 -s 11 -d 18 -p cbr -e 532 -c 2 -a 0 -i 30 -k RTR
r -t 16.502663791 -s 18 -d 18 -p cbr -e 512 -c 2 -a 0 -i 30 -k AGT
+ -t 16.624216148 -s 0 -d -1 -p cbr -e 512 -c 2 -a 0 -i 31 -k AGT 
- -t 16.624216148 -s 0 -d -1 -p cbr -e 512 -c 2 -a 0 -i 31 -k AGT
h -t 16.624216148 -s 0 -d -1 -p cbr -e 512 -c 2 -a 0 -i 31 -k AGT
+ -t 16.624216148 -s 0 -d 11 -p cbr -e 532 -c 2 -a 0 -i 31 -k RTR 
- -t 16.624216148 -s 0 -d 11 -p cbr -e 532 -c 2 -a 0 -i 31 -k RTR
h -t 16.624216148 -s 0 -d 11 -p cbr -e 532 -c 2 -a 0 -i 31 -k RTR
+ -t 16.629846384 -s 11 -d 18 -p cbr -e 532 -c 2 -a 0 -i 31 -k RTR 
- -t 16.629846384 -s 11 -d 18 -p cbr -e 532 -c 2 -a 0 -i 31 -k RTR
h -t 16.629846384 -s 11 -d 18 -p cbr -e 532 -c 2 -a 0 -i 31 -k RTR
r -t 16.635640620 -s 18 -d 18 -p cbr -e 512 -c 2 -a 0 -i 31 -k AGT
+ -t 16.726083791 -s 0 -d -1 -p cbr -e 512 -c 2 -a 0 -i 32 -k AGT 
- -t 16.726083791 -s 0 -d -1 -p cbr -e 512 -c 2 -a 0 -i 32 -k AGT
h -t 16.726083791 -s 0 -d -1 -p cbr -e 512 -c 2 -a 0 -i 32 -k AGT
+ -t 16.726083791 -s 0 -d 11 -p cbr -e 532 -c 2 -a 0 -i 32 -k RTR 
- -t 16.726083791 -s 0 -d 11 -p cbr -e 532 -c 2 -a 0 -i 32 -k RTR
h -t 16.726083791 -s 0 -d 11 -p cbr -e 532 -c 2 -a 0 -i 32 -k RTR
+ -t 16.731934027 -s 11 -d 18 -p cbr -e 532 -c 2 -a 0 -i 32 -k RTR 
- -t 16.731934027 -s 11 -d 18 -p cbr -e 532 -c 2 -a 0 -i 32 -k RTR
h -t 16.731934027 -s 11 -d 18 -p cbr -e 532 -c 2 -a 0 -i 32 -k RTR
r -t 16.738188263 -s 18 -d 18 -p cbr -e 512 -c 2 -a 0 -i 32 -k AGT
+ -t 16.847172867 -s 0 -d -1 -p cbr -e 512 -c 2 -a 0 -i 33 -k AGT 
- -t 16.847172867 -s 0 -d -1 -p cbr -e 512 -c 2 -a 0 -i 33 -k AGT
h -t 16.847172867 -s 0 -d -1 -p cbr -e 512 -c 2 -a 0 -i 33 -k AGT
+ -t 16.847172867 -s 0 -d 11 -p cbr -e 532 -c 2 -a 0 -i 33 -k RTR 
- -t 16.847172867 -s 0 -d 11 -p cbr -e 532 -c 2 -a 0 -i 33 -k RTR
h -t 16.847172867 -s 0 -d 11 -p cbr -e 532 -c 2 -a 0 -i 33 -k RTR
+ -t 16.852983103 -s 11 -d 18 -p cbr -e 532 -c 2 -a 0 -i 33 -k RTR 
- -t 16.852983103 -s 11 -d 18 -p cbr -e 532 -c 2 -a 0 -i 33 -k RTR
h -t 16.852983103 -s 11 -d 18 -p cbr -e 532 -c 2 -a 0 -i 33 -k RTR
r -t 16.858797339 -s 18 -d 18 -p cbr -e 512 -c 2 -a 0 -i 33 -k AGT
+ -t 16.971703976 -s 0 -d -1 -p cbr -e 512 -c 2 -a 0 -i 34 -k AGT 
- -t 16.971703976 -s 0 -d -1 -p cbr -e 512 -c 2 -a 0 -i 34 -k AGT
h -t 16.971703976 -s 0 -d -1 -p cbr -e 512 -c 2 -a 0 -i 34 -k AGT
+ -t 16.971703976 -s 0 -d 11 -p cbr -e 532 -c 2 -a 0 -i 34 -k RTR 
- -t 16.971703976 -s 0 -d 11 -p cbr -e 532 -c 2 -a 0 -i 34 -k RTR
h -t 16.971703976 -s 0 -d 11 -p cbr -e 532 -c 2 -a 0 -i 34 -k RTR
+ -t 16.977374212 -s 11 -d 18 -p cbr -e 532 -c 2 -a 0 -i 34 -k RTR 
- -t 16.977374212 -s 11 -d 18 -p cbr -e 532 -c 2 -a 0 -i 34 -k RTR
h -t 16.977374212 -s 11 -d 18 -p cbr -e 532 -c 2 -a 0 -i 34 -k RTR
r -t 16.983508448 -s 18 -d 18 -p cbr -e 512 -c 2 -a 0 -i 34 -k AGT
n -t 17.000000 -s 7 -x 300.000000 -y 300.000000 -U 0.633531 -V 2.932344 -T 55.245915
+ -t 17.040563930 -s 0 -d -1 -p cbr -e 512 -c 2 -a 0 -i 35 -k AGT 
- -t 17.040563930 -s 0 -d -1 -p cbr -e 512 -c 2 -a 0 -i 35 -k AGT
h -t 17.040563930 -s 0 -d -1 -p cbr -e 512 -c 2 -a 0 -i 35 -k AGT
+ -t 17.040563930 -s 0 -d 11 -p cbr -e 532 -c 2 -a 0 -i 35 -k RTR 
- -t 17.040563930 -s 0 -d 11 -p cbr -e 532 -c 2 -a 0 -i 35 -k RTR
h -t 17.040563930 -s 0 -d 11 -p cbr -e 532 -c 2 -a 0 -i 35 -k RTR
+ -t 17.046034166 -s 11 -d 18 -p cbr -e 532 -c 2 -a 0 -i 35 -k RTR 
- -t 17.046034166 -s 11 -d 18 -p cbr -e 532 -c 2 -a 0 -i 35 -k RTR
h -t 17.046034166 -s 11 -d 18 -p cbr -e 532 -c 2 -a 0 -i 35 -k RTR
r -t 17.051848402 -s 18 -d 18 -p cbr -e 512 -c 2 -a 0 -i 35 -k AGT
+ -t 17.112322564 -s 0 -d -1 -p cbr -e 512 -c 2 -a 0 -i 36 -k AGT 
- -t 17.112322564 -s 0 -d -1 -p cbr -e 512 -c 2 -a 0 -i 36 -k AGT
h -t 17.112322564 -s 0 -d -1 -p cbr -e 512 -c 2 -a 0 -i 36 -k AGT
+ -t 17.112322564 -s 0 -d 11 -p cbr -e 532 -c 2 -a 0 -i 36 -k RTR 
- -t 17.112322564 -s 0 -d 11 -p cbr -e 532 -c 2 -a 0 -i 36 -k RTR
h -t 17.112322564 -s 0 -d 11 -p cbr -e 532 -c 2 -a 0 -i 36 -k RTR
+ -t 17.117772800 -s 11 -d 18 -p cbr -e 532 -c 2 -a 0 -i 36 -k RTR 
- -t 17.117772800 -s 11 -d 18 -p cbr -e 532 -c 2 -a 0 -i 36 -k RTR
h -t 17.117772800 -s 11 -d 18 -p cbr -e 532 -c 2 -a 0 -i 36 -k RTR
r -t 17.123827036 -s 18 -d 18 -p cbr -e 512 -c 2 -a 0 -i 36 -k AGT
+ -t 17.218817104 -s 0 -d -1 -p cbr -e 512 -c 2 -a 0 -i 37 -k AGT 
- -t 17.218817104 -s 0 -d -1 -p cbr -e 512 -c 2 -a 0 -i 37 -k AGT
h -t 17.218817104 -s 0 -d -1 -p cbr -e 512 -c 2 -a 0 -i 37 -k AGT
+ -t 17.218817104 -s 0 -d 11 -p cbr -e 532 -c 2 -a 0 -i 37 -k RTR 
- -t 17.218817104 -s 0 -d 11 -p cbr -e 532 -c 2 -a 0 -i 37 -k RTR
h -t 17.218817104 -s 0 -d 11 -p cbr -e 532 -c 2 -a 0 -i 37 -k RTR
+ -t 17.224807340 -s 11 -d 18 -p cbr -e 532 -c 2 -a 0 -i 37 -k RTR 
- -t 17.224807340 -s 11 -d 18 -p cbr -e 532 -c 2 -a 0 -i 37 -k RTR
h -t 17.224807340 -s 11 -d 18 -p cbr -e 532 -c 2 -a 0 -i 37 -k RTR
r -t 17.231121576 -s 18 -d 18 -p cbr -e 512 -c 2 -a 0 -i 37 -k AGT
+ -t 17.349870757 -s 0 -d -1 -p cbr -e 512 -c 2 -a 0 -i 38 -k AGT 
- -t 17.349870757 -s 0 -d -1 -p cbr -e 512 -c 2 -a 0 -i 38 -k AGT
h -t 17.349870757 -s 0 -d -1 -p cbr -e 512 -c 2 -a 0 -i 38 -k AGT
+ -t 17.349870757 -s 0 -d 11 -p cbr -e 532 -c 2 -a 0 -i 38 -k RTR 
- -t 17.349870757 -s 0 -d 11 -p cbr -e 532 -c 2 -a 0 -i 38 -k RTR
h -t 17.349870757 -s 0 -d 11 -p cbr -e 532 -c 2 -a 0 -i 38 -k RTR
+ -t 17.355600993 -s 11 -d 18 -p cbr -e 532 -c 2 -a 0 -i 38 -k RTR 
- -t 17.355600993 -s 11 -d 18 -p cbr -e 532 -c 2 -a 0 -i 38 -k RTR
h -t 17.355600993 -s 11 -d 18 -p cbr -e 532 -c 2 -a 0 -i 38 -k RTR
r -t 17.361875229 -s 18 -d 18 -p cbr -e 512 -c 2 -a 0 -i 38 -k AGT
+ -t 17.484514681 -s 0 -d -1 -p cbr -e 512 -c 2 -a 0 -i 39 -k AGT 
- -t 17.484514681 -s 0 -d -1 -p cbr -e 512 -c 2 -a 0 -i 39 -k AGT
h -t 17.484514681 -s 0 -d -1 -p cbr -e 512 -c 2 -a 0 -i 39 -k AGT
+ -t 17.484514681 -s 0 -d 11 -p cbr -e 532 -c 2 -a 0 -i 39 -k RTR 
- -t 17.484514681 -s 0 -d 11 -p cbr -e 532 -c 2 -a 0 -i 39 -k RTR
h -t 17.484514681 -s 0 -d 11 -p cbr -e 532 -c 2 -a 0 -i 39 -k RTR
+ -t 17.490284917 -s 11 -d 18 -p cbr -e 532 -c 2 -a 0 -i 39 -k RTR 
- -t 17.490284917 -s 11 -d 18 -p cbr -e 532 -c 2 -a 0 -i 39 -k RTR
h -t 17.490284917 -s 11 -d 18 -p cbr -e 532 -c 2 -a 0 -i 39 -k RTR
r -t 17.496119153 -s 18 -d 18 -p cbr -e 512 -c 2 -a 0 -i 39 -k AGT
+ -t 17.547181269 -s 0 -d -1 -p cbr -e 512 -c 2 -a 0 -i 40 -k AGT 
- -t 17.547181269 -s 0 -d -1 -p cbr -e 512 -c 2 -a 0 -i 40 -k AGT
h -t 17.547181269 -s 0 -d -1 -p cbr -e 512 -c 2 -a 0 -i 40 -k AGT
+ -t 17.547181269 -s 0 -d 11 -p cbr -e 532 -c 2 -a 0 -i 40 -k RTR 
- -t 17.547181269 -s 0 -d 11 -p cbr -e 532 -c 2 -a 0 -i 40 -k RTR
h -t 17.547181269 -s 0 -d 11 -p cbr -e 532 -c 2 -a 0 -i 40 -k RTR
+ -t 17.553151505 -s 11 -d 18 -p cbr -e 532 -c 2 -a 0 -i 40 -k RTR 
- -t 17.553151505 -s 11 -d 18 -p cbr -e 532 -c 2 -a 0 -i 40 -k RTR
h -t 17.553151505 -s 11 -d 18 -p cbr -e 532 -c 2 -a 0 -i 40 -k RTR
r -t 17.559305741 -s 18 -d 18 -p cbr -e 512 -c 2 -a 0 -i 40 -k AGT
+ -t 17.649543604 -s 0 -d -1 -p cbr -e 512 -c 2 -a 0 -i 41 -k AGT 
- -t 17.649543604 -s 0 -d -1 -p cbr -e 512 -c 2 -a 0 -i 41 -k AGT
h -t 17.649543604 -s 0 -d -1 -p cbr -e 512 -c 2 -a 0 -i 41 -k AGT
+ -t 17.649543604 -s 0 -d 11 -p cbr -e 532 -c 2 -a 0 -i 41 -k RTR 
- -t 17.649543604 -s 0 -d 11 -p cbr -e 532 -c 2 -a 0 -i 41 -k RTR
h -t 17.649543604 -s 0 -d 11 -p cbr -e 532 -c 2 -a 0 -i 41 -k RTR
+ -t 17.655413840 -s 11 -d 18 -p cbr -e 532 -c 2 -a 0 -i 41 -k RTR 
- -t 17.655413840 -s 11 -d 18 -p cbr -e 532 -c 2 -a 0 -i 41 -k RTR
h -t 17.655413840 -s 11 -d 18 -p cbr -e 532 -c 2 -a 0 -i 41 -k RTR
r -t 17.661688076 -s 18 -d 18 -p cbr -e 512 -c 2 -a 0 -i 41 -k AGT
+ -t 17.717097203 -s 0 -d -1 -p cbr -e 512 -c 2 -a 0 -i 42 -k AGT 
- -t 17.717097203 -s 0 -d -1 -p cbr -e 512 -c 2 -a 0 -i 42 -k AGT
h -t 17.717097203 -s 0 -d -1 -p cbr -e 512 -c 2 -a 0 -i 42 -k AGT
+ -t 17.717097203 -s 0 -d 11 -p cbr -e 532 -c 2 -a 0 -i 42 -k RTR 
- -t 17.717097203 -s 0 -d 11 -p cbr -e 532 -c 2 -a 0 -i 42 -k RTR
h -t 17.717097203 -s 0 -d 11 -p cbr -e 532 -c 2 -a 0 -i 42 -k RTR
+ -t 17.722847439 -s 11 -d 18 -p cbr -e 532 -c 2 -a 0 -i 42 -k RTR 
- -t 17.722847439 -s 11 -d 18 -p cbr -e 532 -c 2 -a 0 -i 42 -k RTR
h -t 17.722847439 -s 11 -d 18 -p cbr -e 532 -c 2 -a 0 -i 42 -k RTR
r -t 17.728681675 -s 18 -d 18 -p cbr -e 512 -c 2 -a 0 -i 42 -k AGT
+ -t 17.857518906 -s 0 -d -1 -p cbr -e 512 -c 2 -a 0 -i 43 -k AGT 
- -t 17.857518906 -s 0 -d -1 -p cbr -e 512 -c 2 -a 0 -i 43 -k AGT
h -t 17.857518906 -s 0 -d -1 -p cbr -e 512 -c 2 -a 0 -i 43 -k AGT
+ -t 17.857518906 -s 0 -d 11 -p cbr -e 532 -c 2 -a 0 -i 43 -k RTR 