Sconfig 0.00000 tap: on snoop: rts? on errs? on
Sconfig 0.00000 salvage: on !bd replies? on
Sconfig 0.00000 grat error: on grat reply: on
Sconfig 0.00000 $reply for props: on ring 0 search: on
Sconfig 0.00000 using MOBICACHE
s 15.000000000 _0_ AGT  --- 0 cbr 512 [0 0 0 0] ------- [0:0 16:0 32 0] [0] 0 0
r 15.000000000 _0_ RTR  --- 0 cbr 512 [0 0 0 0] ------- [0:0 16:0 32 0] [0] 0 0
s 15.009488615 _0_ RTR  --- 1 DSR 32 [0 0 0 0] ------- [0:255 16:255 32 0] 1 [1 1] [0 1 0 0->0] [0 0 0 0->0]
r 15.010700949 _3_ RTR  --- 1 DSR 32 [0 ffffffff 0 800] ------- [0:255 16:255 32 0] 1 [1 1] [0 1 0 0->0] [0 0 0 0->0]
r 15.010701282 _6_ RTR  --- 1 DSR 32 [0 ffffffff 0 800] ------- [0:255 16:255 32 0] 1 [1 1] [0 1 0 0->0] [0 0 0 0->0]
r 15.010701282 _1_ RTR  --- 1 DSR 32 [0 ffffffff 0 800] ------- [0:255 16:255 32 0] 1 [1 1] [0 1 0 0->0] [0 0 0 0->0]
r 15.010701361 _4_ RTR  --- 1 DSR 32 [0 ffffffff 0 800] ------- [0:255 16:255 32 0] 1 [1 1] [0 1 0 0->0] [0 0 0 0->0]
s 15.026033893 _0_ AGT  --- 2 cbr 512 [0 0 0 0] ------- [0:0 16:0 32 0] [1] 0 0
r 15.026033893 _0_ RTR  --- 2 cbr 512 [0 0 0 0] ------- [0:0 16:0 32 0] [1] 0 0
s 15.039006993 _0_ RTR  --- 4 DSR 32 [0 0 0 0] ------- [0:255 16:255 32 0] 1 [1 2] [0 2 0 0->16] [0 0 0 0->0]
r 15.039879326 _3_ RTR  --- 4 DSR 32 [0 ffffffff 0 800] ------- [0:255 16:255 32 0] 1 [1 2] [0 2 0 0->16] [0 0 0 0->0]
r 15.039879659 _6_ RTR  --- 4 DSR 32 [0 ffffffff 0 800] ------- [0:255 16:255 32 0] 1 [1 2] [0 2 0 0->16] [0 0 0 0->0]
r 15.039879659 _1_ RTR  --- 4 DSR 32 [0 ffffffff 0 800] ------- [0:255 16:255 32 0] 1 [1 2] [0 2 0 0->16] [0 0 0 0->0]
r 15.039879738 _4_ RTR  --- 4 DSR 32 [0 ffffffff 0 800] ------- [0:255 16:255 32 0] 1 [1 2] [0 2 0 0->16] [0 0 0 0->0]
f 15.043455282 _1_ RTR  --- 4 DSR 48 [0 ffffffff 0 800] ------- [0:255 16:255 32 0] 2 [1 2] [0 2 0 0->16] [0 0 0 0->0]
r 15.044935615 _4_ RTR  --- 4 DSR 48 [0 ffffffff 1 800] ------- [0:255 16:255 32 0] 2 [1 2] [0 2 0 0->16] [0 0 0 0->0]
r 15.044935948 _0_ RTR  --- 4 DSR 48 [0 ffffffff 1 800] ------- [0:255 16:255 32 0] 2 [1 2] [0 2 0 0->16] [0 0 0 0->0]
r 15.044935948 _7_ RTR  --- 4 DSR 48 [0 ffffffff 1 800] ------- [0:255 16:255 32 0] 2 [1 2] [0 2 0 0->16] [0 0 0 0->0]
r 15.044935948 _2_ RTR  --- 4 DSR 48 [0 ffffffff 1 800] ------- [0:255 16:255 32 0] 2 [1 2] [0 2 0 0->16] [0 0 0 0->0]
r 15.044936027 _3_ RTR  --- 4 DSR 48 [0 ffffffff 1 800] ------- [0:255 16:255 32 0] 2 [1 2] [0 2 0 0->16] [0 0 0 0->0]
r 15.044936027 _5_ RTR  --- 4 DSR 48 [0 ffffffff 1 800] ------- [0:255 16:255 32 0] 2 [1 2] [0 2 0 0->16] [0 0 0 0->0]
f 15.046922189 _2_ RTR  --- 4 DSR 68 [0 ffffffff 1 800] ------- [0:255 16:255 32 0] 3 [1 2] [0 2 0 0->16] [0 0 0 0->0]
f 15.048247951 _4_ RTR  --- 4 DSR 48 [0 ffffffff 0 800] ------- [0:255 16:255 32 0] 2 [1 2] [0 2 0 0->16] [0 0 0 0->0]
r 15.048382522 _5_ RTR  --- 4 DSR 68 [0 ffffffff 2 800] ------- [0:255 16:255 32 0] 3 [1 2] [0 2 0 0->16] [0 0 0 0->0]
r 15.048382855 _1_ RTR  --- 4 DSR 68 [0 ffffffff 2 800] ------- [0:255 16:255 32 0] 3 [1 2] [0 2 0 0->16] [0 0 0 0->0]
r 15.048382855 _8_ RTR  --- 4 DSR 68 [0 ffffffff 2 800] ------- [0:255 16:255 32 0] 3 [1 2] [0 2 0 0->16] [0 0 0 0->0]
r 15.048382934 _4_ RTR  --- 4 DSR 68 [0 ffffffff 2 800] ------- [0:255 16:255 32 0] 3 [1 2] [0 2 0 0->16] [0 0 0 0->0]
f 15.048465450 _3_ RTR  --- 4 DSR 48 [0 ffffffff 0 800] ------- [0:255 16:255 32 0] 2 [1 2] [0 2 0 0->16] [0 0 0 0->0]
f 15.048552823 _6_ RTR  --- 4 DSR 48 [0 ffffffff 0 800] ------- [0:255 16:255 32 0] 2 [1 2] [0 2 0 0->16] [0 0 0 0->0]
r 15.049753267 _1_ RTR  --- 4 DSR 48 [0 ffffffff 4 800] ------- [0:255 16:255 32 0] 2 [1 2] [0 2 0 0->16] [0 0 0 0->0]
r 15.049753267 _7_ RTR  --- 4 DSR 48 [0 ffffffff 4 800] ------- [0:255 16:255 32 0] 2 [1 2] [0 2 0 0->16] [0 0 0 0->0]
r 15.049753601 _3_ RTR  --- 4 DSR 48 [0 ffffffff 4 800] ------- [0:255 16:255 32 0] 2 [1 2] [0 2 0 0->16] [0 0 0 0->0]
r 15.049753601 _10_ RTR  --- 4 DSR 48 [0 ffffffff 4 800] ------- [0:255 16:255 32 0] 2 [1 2] [0 2 0 0->16] [0 0 0 0->0]
r 15.049753601 _5_ RTR  --- 4 DSR 48 [0 ffffffff 4 800] ------- [0:255 16:255 32 0] 2 [1 2] [0 2 0 0->16] [0 0 0 0->0]
r 15.049753679 _6_ RTR  --- 4 DSR 48 [0 ffffffff 4 800] ------- [0:255 16:255 32 0] 2 [1 2] [0 2 0 0->16] [0 0 0 0->0]
r 15.049753679 _0_ RTR  --- 4 DSR 48 [0 ffffffff 4 800] ------- [0:255 16:255 32 0] 2 [1 2] [0 2 0 0->16] [0 0 0 0->0]
r 15.049753679 _2_ RTR  --- 4 DSR 48 [0 ffffffff 4 800] ------- [0:255 16:255 32 0] 2 [1 2] [0 2 0 0->16] [0 0 0 0->0]
r 15.049753679 _8_ RTR  --- 4 DSR 48 [0 ffffffff 4 800] ------- [0:255 16:255 32 0] 2 [1 2] [0 2 0 0->16] [0 0 0 0->0]
f 15.050579561 _10_ RTR  --- 4 DSR 68 [0 ffffffff 4 800] ------- [0:255 16:255 32 0] 3 [1 2] [0 2 0 0->16] [0 0 0 0->0]
r 15.050644013 _3_ RTR  --- 4 DSR 48 [0 ffffffff 6 800] ------- [0:255 16:255 32 0] 2 [1 2] [0 2 0 0->16] [0 0 0 0->0]
r 15.050644013 _9_ RTR  --- 4 DSR 48 [0 ffffffff 6 800] ------- [0:255 16:255 32 0] 2 [1 2] [0 2 0 0->16] [0 0 0 0->0]
r 15.050644346 _0_ RTR  --- 4 DSR 48 [0 ffffffff 6 800] ------- [0:255 16:255 32 0] 2 [1 2] [0 2 0 0->16] [0 0 0 0->0]
r 15.050644346 _12_ RTR  --- 4 DSR 48 [0 ffffffff 6 800] ------- [0:255 16:255 32 0] 2 [1 2] [0 2 0 0->16] [0 0 0 0->0]
r 15.050644346 _7_ RTR  --- 4 DSR 48 [0 ffffffff 6 800] ------- [0:255 16:255 32 0] 2 [1 2] [0 2 0 0->16] [0 0 0 0->0]
r 15.050644425 _4_ RTR  --- 4 DSR 48 [0 ffffffff 6 800] ------- [0:255 16:255 32 0] 2 [1 2] [0 2 0 0->16] [0 0 0 0->0]
r 15.050644425 _10_ RTR  --- 4 DSR 48 [0 ffffffff 6 800] ------- [0:255 16:255 32 0] 2 [1 2] [0 2 0 0->16] [0 0 0 0->0]
f 15.051393292 _7_ RTR  --- 4 DSR 68 [0 ffffffff 1 800] ------- [0:255 16:255 32 0] 3 [1 2] [0 2 0 0->16] [0 0 0 0->0]
r 15.051714346 _0_ RTR  --- 4 DSR 48 [0 ffffffff 3 800] ------- [0:255 16:255 32 0] 2 [1 2] [0 2 0 0->16] [0 0 0 0->0]
r 15.051714346 _6_ RTR  --- 4 DSR 48 [0 ffffffff 3 800] ------- [0:255 16:255 32 0] 2 [1 2] [0 2 0 0->16] [0 0 0 0->0]
r 15.051714679 _9_ RTR  --- 4 DSR 48 [0 ffffffff 3 800] ------- [0:255 16:255 32 0] 2 [1 2] [0 2 0 0->16] [0 0 0 0->0]
r 15.051714679 _4_ RTR  --- 4 DSR 48 [0 ffffffff 3 800] ------- [0:255 16:255 32 0] 2 [1 2] [0 2 0 0->16] [0 0 0 0->0]
r 15.051714758 _1_ RTR  --- 4 DSR 48 [0 ffffffff 3 800] ------- [0:255 16:255 32 0] 2 [1 2] [0 2 0 0->16] [0 0 0 0->0]
r 15.051714758 _7_ RTR  --- 4 DSR 48 [0 ffffffff 3 800] ------- [0:255 16:255 32 0] 2 [1 2] [0 2 0 0->16] [0 0 0 0->0]
f 15.052240172 _8_ RTR  --- 4 DSR 92 [0 ffffffff 2 800] ------- [0:255 16:255 32 0] 4 [1 2] [0 2 0 0->16] [0 0 0 0->0]
r 15.053185091 _4_ RTR  --- 4 DSR 68 [0 ffffffff 7 800] ------- [0:255 16:255 32 0] 3 [1 2] [0 2 0 0->16] [0 0 0 0->0]
r 15.053185091 _10_ RTR  --- 4 DSR 68 [0 ffffffff 7 800] ------- [0:255 16:255 32 0] 3 [1 2] [0 2 0 0->16] [0 0 0 0->0]
r 15.053185425 _1_ RTR  --- 4 DSR 68 [0 ffffffff 7 800] ------- [0:255 16:255 32 0] 3 [1 2] [0 2 0 0->16] [0 0 0 0->0]
r 15.053185425 _6_ RTR  --- 4 DSR 68 [0 ffffffff 7 800] ------- [0:255 16:255 32 0] 3 [1 2] [0 2 0 0->16] [0 0 0 0->0]
r 15.053185425 _13_ RTR  --- 4 DSR 68 [0 ffffffff 7 800] ------- [0:255 16:255 32 0] 3 [1 2] [0 2 0 0->16] [0 0 0 0->0]
r 15.053185425 _8_ RTR  --- 4 DSR 68 [0 ffffffff 7 800] ------- [0:255 16:255 32 0] 3 [1 2] [0 2 0 0->16] [0 0 0 0->0]
r 15.053185503 _9_ RTR  --- 4 DSR 68 [0 ffffffff 7 800] ------- [0:255 16:255 32 0] 3 [1 2] [0 2 0 0->16] [0 0 0 0->0]
r 15.053185503 _3_ RTR  --- 4 DSR 68 [0 ffffffff 7 800] ------- [0:255 16:255 32 0] 3 [1 2] [0 2 0 0->16] [0 0 0 0->0]
r 15.053185503 _5_ RTR  --- 4 DSR 68 [0 ffffffff 7 800] ------- [0:255 16:255 32 0] 3 [1 2] [0 2 0 0->16] [0 0 0 0->0]
r 15.053185503 _11_ RTR  --- 4 DSR 68 [0 ffffffff 7 800] ------- [0:255 16:255 32 0] 3 [1 2] [0 2 0 0->16] [0 0 0 0->0]
r 15.054495425 _7_ RTR  --- 4 DSR 68 [0 ffffffff a 800] ------- [0:255 16:255 32 0] 3 [1 2] [0 2 0 0->16] [0 0 0 0->0]
r 15.054495425 _13_ RTR  --- 4 DSR 68 [0 ffffffff a 800] ------- [0:255 16:255 32 0] 3 [1 2] [0 2 0 0->16] [0 0 0 0->0]
r 15.054495758 _4_ RTR  --- 4 DSR 68 [0 ffffffff a 800] ------- [0:255 16:255 32 0] 3 [1 2] [0 2 0 0->16] [0 0 0 0->0]
r 15.054495758 _9_ RTR  --- 4 DSR 68 [0 ffffffff a 800] ------- [0:255 16:255 32 0] 3 [1 2] [0 2 0 0->16] [0 0 0 0->0]
r 15.054495758 _16_ RTR  --- 4 DSR 68 [0 ffffffff a 800] ------- [0:255 16:255 32 0] 3 [1 2] [0 2 0 0->16] [0 0 0 0->0]
r 15.054495758 _11_ RTR  --- 4 DSR 68 [0 ffffffff a 800] ------- [0:255 16:255 32 0] 3 [1 2] [0 2 0 0->16] [0 0 0 0->0]
r 15.054495837 _19_ RTR  --- 4 DSR 68 [0 ffffffff a 800] ------- [0:255 16:255 32 0] 3 [1 2] [0 2 0 0->16] [0 0 0 0->0]
r 15.054495837 _12_ RTR  --- 4 DSR 68 [0 ffffffff a 800] ------- [0:255 16:255 32 0] 3 [1 2] [0 2 0 0->16] [0 0 0 0->0]
r 15.054495837 _6_ RTR  --- 4 DSR 68 [0 ffffffff a 800] ------- [0:255 16:255 32 0] 3 [1 2] [0 2 0 0->16] [0 0 0 0->0]
r 15.054495837 _18_ RTR  --- 4 DSR 68 [0 ffffffff a 800] ------- [0:255 16:255 32 0] 3 [1 2] [0 2 0 0->16] [0 0 0 0->0]
r 15.054495837 _8_ RTR  --- 4 DSR 68 [0 ffffffff a 800] ------- [0:255 16:255 32 0] 3 [1 2] [0 2 0 0->16] [0 0 0 0->0]
r 15.054495837 _14_ RTR  --- 4 DSR 68 [0 ffffffff a 800] ------- [0:255 16:255 32 0] 3 [1 2] [0 2 0 0->16] [0 0 0 0->0]
f 15.054511468 _14_ RTR  --- 4 DSR 92 [0 ffffffff a 800] ------- [0:255 16:255 32 0] 4 [1 2] [0 2 0 0->16] [0 0 0 0->0]
f 15.054837510 _5_ RTR  --- 4 DSR 68 [0 ffffffff 1 800] ------- [0:255 16:255 32 0] 3 [1 2] [0 2 0 0->16] [0 0 0 0->0]
r 15.055763801 _11_ RTR  --- 4 DSR 92 [0 ffffffff e 800] ------- [0:255 16:255 32 0] 4 [1 2] [0 2 0 0->16] [0 0 0 0->0]
r 15.055763801 _17_ RTR  --- 4 DSR 92 [0 ffffffff e 800] ------- [0:255 16:255 32 0] 4 [1 2] [0 2 0 0->16] [0 0 0 0->0]
r 15.055763939 _18_ RTR  --- 4 DSR 92 [0 ffffffff e 800] ------- [0:255 16:255 32 0] 4 [1 2] [0 2 0 0->16] [0 0 0 0->0]
r 15.055764134 _8_ RTR  --- 4 DSR 92 [0 ffffffff e 800] ------- [0:255 16:255 32 0] 4 [1 2] [0 2 0 0->16] [0 0 0 0->0]
r 15.055764134 _13_ RTR  --- 4 DSR 92 [0 ffffffff e 800] ------- [0:255 16:255 32 0] 4 [1 2] [0 2 0 0->16] [0 0 0 0->0]
r 15.055764213 _16_ RTR  --- 4 DSR 92 [0 ffffffff e 800] ------- [0:255 16:255 32 0] 4 [1 2] [0 2 0 0->16] [0 0 0 0->0]
r 15.055764213 _10_ RTR  --- 4 DSR 92 [0 ffffffff e 800] ------- [0:255 16:255 32 0] 4 [1 2] [0 2 0 0->16] [0 0 0 0->0]
f 15.057006990 _9_ RTR  --- 4 DSR 68 [0 ffffffff 6 800] ------- [0:255 16:255 32 0] 3 [1 2] [0 2 0 0->16] [0 0 0 0->0]
r 15.057026468 _5_ RTR  --- 4 DSR 92 [0 ffffffff 8 800] ------- [0:255 16:255 32 0] 4 [1 2] [0 2 0 0->16] [0 0 0 0->0]
r 15.057026468 _11_ RTR  --- 4 DSR 92 [0 ffffffff 8 800] ------- [0:255 16:255 32 0] 4 [1 2] [0 2 0 0->16] [0 0 0 0->0]
r 15.057026801 _2_ RTR  --- 4 DSR 92 [0 ffffffff 8 800] ------- [0:255 16:255 32 0] 4 [1 2] [0 2 0 0->16] [0 0 0 0->0]
r 15.057026801 _7_ RTR  --- 4 DSR 92 [0 ffffffff 8 800] ------- [0:255 16:255 32 0] 4 [1 2] [0 2 0 0->16] [0 0 0 0->0]
r 15.057026801 _14_ RTR  --- 4 DSR 92 [0 ffffffff 8 800] ------- [0:255 16:255 32 0] 4 [1 2] [0 2 0 0->16] [0 0 0 0->0]
r 15.057026880 _10_ RTR  --- 4 DSR 92 [0 ffffffff 8 800] ------- [0:255 16:255 32 0] 4 [1 2] [0 2 0 0->16] [0 0 0 0->0]
r 15.057026880 _4_ RTR  --- 4 DSR 92 [0 ffffffff 8 800] ------- [0:255 16:255 32 0] 4 [1 2] [0 2 0 0->16] [0 0 0 0->0]
r 15.058196801 _2_ RTR  --- 4 DSR 68 [0 ffffffff 5 800] ------- [0:255 16:255 32 0] 3 [1 2] [0 2 0 0->16] [0 0 0 0->0]
r 15.058196801 _8_ RTR  --- 4 DSR 68 [0 ffffffff 5 800] ------- [0:255 16:255 32 0] 3 [1 2] [0 2 0 0->16] [0 0 0 0->0]
r 15.058197134 _4_ RTR  --- 4 DSR 68 [0 ffffffff 5 800] ------- [0:255 16:255 32 0] 3 [1 2] [0 2 0 0->16] [0 0 0 0->0]
r 15.058197134 _11_ RTR  --- 4 DSR 68 [0 ffffffff 5 800] ------- [0:255 16:255 32 0] 3 [1 2] [0 2 0 0->16] [0 0 0 0->0]
r 15.058197213 _7_ RTR  --- 4 DSR 68 [0 ffffffff 5 800] ------- [0:255 16:255 32 0] 3 [1 2] [0 2 0 0->16] [0 0 0 0->0]
r 15.058197213 _1_ RTR  --- 4 DSR 68 [0 ffffffff 5 800] ------- [0:255 16:255 32 0] 3 [1 2] [0 2 0 0->16] [0 0 0 0->0]
f 15.058403106 _11_ RTR  --- 4 DSR 92 [0 ffffffff 7 800] ------- [0:255 16:255 32 0] 4 [1 2] [0 2 0 0->16] [0 0 0 0->0]
s 15.058724065 _16_ RTR  --- 6 DSR 60 [0 0 0 0] ------- [16:255 0:255 254 10] 4 [0 2] [1 2 4 0->16] [0 0 0 0->0]
f 15.058746448 _13_ RTR  --- 4 DSR 92 [0 ffffffff 7 800] ------- [0:255 16:255 32 0] 4 [1 2] [0 2 0 0->16] [0 0 0 0->0]
r 15.059998781 _10_ RTR  --- 4 DSR 92 [0 ffffffff d 800] ------- [0:255 16:255 32 0] 4 [1 2] [0 2 0 0->16] [0 0 0 0->0]
r 15.059998781 _16_ RTR  --- 4 DSR 92 [0 ffffffff d 800] ------- [0:255 16:255 32 0] 4 [1 2] [0 2 0 0->16] [0 0 0 0->0]
r 15.059998920 _19_ RTR  --- 4 DSR 92 [0 ffffffff d 800] ------- [0:255 16:255 32 0] 4 [1 2] [0 2 0 0->16] [0 0 0 0->0]
r 15.059998920 _18_ RTR  --- 4 DSR 92 [0 ffffffff d 800] ------- [0:255 16:255 32 0] 4 [1 2] [0 2 0 0->16] [0 0 0 0->0]
r 15.059999115 _7_ RTR  --- 4 DSR 92 [0 ffffffff d 800] ------- [0:255 16:255 32 0] 4 [1 2] [0 2 0 0->16] [0 0 0 0->0]
r 15.059999115 _12_ RTR  --- 4 DSR 92 [0 ffffffff d 800] ------- [0:255 16:255 32 0] 4 [1 2] [0 2 0 0->16] [0 0 0 0->0]
r 15.059999115 _14_ RTR  --- 4 DSR 92 [0 ffffffff d 800] ------- [0:255 16:255 32 0] 4 [1 2] [0 2 0 0->16] [0 0 0 0->0]
r 15.059999194 _15_ RTR  --- 4 DSR 92 [0 ffffffff d 800] ------- [0:255 16:255 32 0] 4 [1 2] [0 2 0 0->16] [0 0 0 0->0]
r 15.059999194 _9_ RTR  --- 4 DSR 92 [0 ffffffff d 800] ------- [0:255 16:255 32 0] 4 [1 2] [0 2 0 0->16] [0 0 0 0->0]
r 15.059999194 _11_ RTR  --- 4 DSR 92 [0 ffffffff d 800] ------- [0:255 16:255 32 0] 4 [1 2] [0 2 0 0->16] [0 0 0 0->0]
r 15.059999194 _17_ RTR  --- 4 DSR 92 [0 ffffffff d 800] ------- [0:255 16:255 32 0] 4 [1 2] [0 2 0 0->16] [0 0 0 0->0]
f 15.060034813 _19_ RTR  --- 4 DSR 92 [0 ffffffff a 800] ------- [0:255 16:255 32 0] 4 [1 2] [0 2 0 0->16] [0 0 0 0->0]
f 15.060102439 _17_ RTR  --- 4 DSR 120 [0 ffffffff e 800] ------- [0:255 16:255 32 0] 5 [1 2] [0 2 0 0->16] [0 0 0 0->0]
f 15.060146918 _12_ RTR  --- 4 DSR 68 [0 ffffffff 6 800] ------- [0:255 16:255 32 0] 3 [1 2] [0 2 0 0->16] [0 0 0 0->0]
r 15.061662781 _10_ RTR  --- 6 DSR 60 [13a a 10 800] ------- [16:255 0:255 254 10] 4 [0 2] [1 2 4 0->16] [0 0 0 0->0]
f 15.061662781 _10_ RTR  --- 6 DSR 60 [13a a 10 800] ------- [16:255 0:255 253 4] 4 [0 2] [1 2 4 0->16] [0 0 0 0->0]
s 15.061758039 _16_ RTR  --- 8 DSR 68 [0 0 0 0] ------- [16:255 0:255 254 13] 5 [0 2] [1 2 5 0->16] [0 0 0 0->0]
f 15.062014885 _15_ RTR  --- 4 DSR 120 [0 ffffffff d 800] ------- [0:255 16:255 32 0] 5 [1 2] [0 2 0 0->16] [0 0 0 0->0]
s 15.062443092 _0_ AGT  --- 9 cbr 512 [0 0 0 0] ------- [0:0 16:0 32 0] [2] 0 0
r 15.062443092 _0_ RTR  --- 9 cbr 512 [0 0 0 0] ------- [0:0 16:0 32 0] [2] 0 0
f 15.063046263 _18_ RTR  --- 4 DSR 92 [0 ffffffff a 800] ------- [0:255 16:255 32 0] 4 [1 2] [0 2 0 0->16] [0 0 0 0->0]
s 15.063066451 _16_ RTR  --- 7 DSR 68 [0 0 0 0] ------- [16:255 0:255 254 14] 5 [0 2] [1 2 5 0->16] [0 0 0 0->0]
r 15.063700781 _4_ RTR  --- 6 DSR 60 [13a 4 a 800] ------- [16:255 0:255 253 4] 4 [0 2] [1 2 4 0->16] [0 0 0 0->0]
f 15.063700781 _4_ RTR  --- 6 DSR 60 [13a 4 a 800] ------- [16:255 0:255 252 0] 4 [0 2] [1 2 4 0->16] [0 0 0 0->0]
r 15.065826606 _12_ RTR  --- 4 DSR 120 [0 ffffffff f 800] ------- [0:255 16:255 32 0] 5 [1 2] [0 2 0 0->16] [0 0 0 0->0]
r 15.065826606 _19_ RTR  --- 4 DSR 120 [0 ffffffff f 800] ------- [0:255 16:255 32 0] 5 [1 2] [0 2 0 0->16] [0 0 0 0->0]
r 15.065826939 _9_ RTR  --- 4 DSR 120 [0 ffffffff f 800] ------- [0:255 16:255 32 0] 5 [1 2] [0 2 0 0->16] [0 0 0 0->0]
r 15.065826939 _16_ RTR  --- 4 DSR 120 [0 ffffffff f 800] ------- [0:255 16:255 32 0] 5 [1 2] [0 2 0 0->16] [0 0 0 0->0]
r 15.065827018 _13_ RTR  --- 4 DSR 120 [0 ffffffff f 800] ------- [0:255 16:255 32 0] 5 [1 2] [0 2 0 0->16] [0 0 0 0->0]
r 15.066877272 _6_ RTR  --- 4 DSR 68 [0 ffffffff 9 800] ------- [0:255 16:255 32 0] 3 [1 2] [0 2 0 0->16] [0 0 0 0->0]
r 15.066877272 _12_ RTR  --- 4 DSR 68 [0 ffffffff 9 800] ------- [0:255 16:255 32 0] 3 [1 2] [0 2 0 0->16] [0 0 0 0->0]
r 15.066877606 _3_ RTR  --- 4 DSR 68 [0 ffffffff 9 800] ------- [0:255 16:255 32 0] 3 [1 2] [0 2 0 0->16] [0 0 0 0->0]
r 15.066877606 _15_ RTR  --- 4 DSR 68 [0 ffffffff 9 800] ------- [0:255 16:255 32 0] 3 [1 2] [0 2 0 0->16] [0 0 0 0->0]
r 15.066877606 _10_ RTR  --- 4 DSR 68 [0 ffffffff 9 800] ------- [0:255 16:255 32 0] 3 [1 2] [0 2 0 0->16] [0 0 0 0->0]
r 15.066877684 _19_ RTR  --- 4 DSR 68 [0 ffffffff 9 800] ------- [0:255 16:255 32 0] 3 [1 2] [0 2 0 0->16] [0 0 0 0->0]
r 15.066877684 _7_ RTR  --- 4 DSR 68 [0 ffffffff 9 800] ------- [0:255 16:255 32 0] 3 [1 2] [0 2 0 0->16] [0 0 0 0->0]
r 15.066877684 _13_ RTR  --- 4 DSR 68 [0 ffffffff 9 800] ------- [0:255 16:255 32 0] 3 [1 2] [0 2 0 0->16] [0 0 0 0->0]
r 15.067967606 _9_ RTR  --- 4 DSR 68 [0 ffffffff c 800] ------- [0:255 16:255 32 0] 3 [1 2] [0 2 0 0->16] [0 0 0 0->0]
r 15.068160156 _12_ RTR  --- 4 DSR 92 [0 ffffffff 13 800] ------- [0:255 16:255 32 0] 4 [1 2] [0 2 0 0->16] [0 0 0 0->0]
r 15.069867219 _8_ RTR  --- 4 DSR 92 [0 ffffffff b 800] ------- [0:255 16:255 32 0] 4 [1 2] [0 2 0 0->16] [0 0 0 0->0]
r 15.069867219 _14_ RTR  --- 4 DSR 92 [0 ffffffff b 800] ------- [0:255 16:255 32 0] 4 [1 2] [0 2 0 0->16] [0 0 0 0->0]
r 15.069867553 _5_ RTR  --- 4 DSR 92 [0 ffffffff b 800] ------- [0:255 16:255 32 0] 4 [1 2] [0 2 0 0->16] [0 0 0 0->0]
r 15.069867553 _10_ RTR  --- 4 DSR 92 [0 ffffffff b 800] ------- [0:255 16:255 32 0] 4 [1 2] [0 2 0 0->16] [0 0 0 0->0]
r 15.069867553 _17_ RTR  --- 4 DSR 92 [0 ffffffff b 800] ------- [0:255 16:255 32 0] 4 [1 2] [0 2 0 0->16] [0 0 0 0->0]
r 15.069867631 _18_ RTR  --- 4 DSR 92 [0 ffffffff b 800] ------- [0:255 16:255 32 0] 4 [1 2] [0 2 0 0->16] [0 0 0 0->0]
r 15.069867631 _13_ RTR  --- 4 DSR 92 [0 ffffffff b 800] ------- [0:255 16:255 32 0] 4 [1 2] [0 2 0 0->16] [0 0 0 0->0]
r 15.069867631 _7_ RTR  --- 4 DSR 92 [0 ffffffff b 800] ------- [0:255 16:255 32 0] 4 [1 2] [0 2 0 0->16] [0 0 0 0->0]
r 15.071633886 _14_ RTR  --- 4 DSR 120 [0 ffffffff 11 800] ------- [0:255 16:255 32 0] 5 [1 2] [0 2 0 0->16] [0 0 0 0->0]
r 15.071633886 _18_ RTR  --- 4 DSR 120 [0 ffffffff 11 800] ------- [0:255 16:255 32 0] 5 [1 2] [0 2 0 0->16] [0 0 0 0->0]
r 15.071634219 _11_ RTR  --- 4 DSR 120 [0 ffffffff 11 800] ------- [0:255 16:255 32 0] 5 [1 2] [0 2 0 0->16] [0 0 0 0->0]
r 15.071634219 _16_ RTR  --- 4 DSR 120 [0 ffffffff 11 800] ------- [0:255 16:255 32 0] 5 [1 2] [0 2 0 0->16] [0 0 0 0->0]
r 15.071634298 _13_ RTR  --- 4 DSR 120 [0 ffffffff 11 800] ------- [0:255 16:255 32 0] 5 [1 2] [0 2 0 0->16] [0 0 0 0->0]
r 15.072936219 _16_ RTR  --- 4 DSR 92 [0 ffffffff 12 800] ------- [0:255 16:255 32 0] 4 [1 2] [0 2 0 0->16] [0 0 0 0->0]
r 15.072936219 _17_ RTR  --- 4 DSR 92 [0 ffffffff 12 800] ------- [0:255 16:255 32 0] 4 [1 2] [0 2 0 0->16] [0 0 0 0->0]
r 15.072936357 _13_ RTR  --- 4 DSR 92 [0 ffffffff 12 800] ------- [0:255 16:255 32 0] 4 [1 2] [0 2 0 0->16] [0 0 0 0->0]
r 15.072936357 _14_ RTR  --- 4 DSR 92 [0 ffffffff 12 800] ------- [0:255 16:255 32 0] 4 [1 2] [0 2 0 0->16] [0 0 0 0->0]
r 15.072936553 _19_ RTR  --- 4 DSR 92 [0 ffffffff 12 800] ------- [0:255 16:255 32 0] 4 [1 2] [0 2 0 0->16] [0 0 0 0->0]
r 15.072936631 _10_ RTR  --- 4 DSR 92 [0 ffffffff 12 800] ------- [0:255 16:255 32 0] 4 [1 2] [0 2 0 0->16] [0 0 0 0->0]
r 15.072936631 _11_ RTR  --- 4 DSR 92 [0 ffffffff 12 800] ------- [0:255 16:255 32 0] 4 [1 2] [0 2 0 0->16] [0 0 0 0->0]
s 15.074344691 _16_ RTR  --- 13 DSR 68 [0 0 0 0] ------- [16:255 0:255 254 18] 5 [0 2] [1 2 5 0->16] [0 0 0 0->0]
r 15.074863219 _13_ RTR  --- 8 DSR 68 [13a d 10 800] ------- [16:255 0:255 254 13] 5 [0 2] [1 2 5 0->16] [0 0 0 0->0]
f 15.074863219 _13_ RTR  --- 8 DSR 68 [13a d 10 800] ------- [16:255 0:255 253 7] 5 [0 2] [1 2 5 0->16] [0 0 0 0->0]
s 15.075815607 _16_ RTR  --- 11 DSR 76 [0 0 0 0] ------- [16:255 0:255 254 15] 6 [0 2] [1 2 6 0->16] [0 0 0 0->0]
r 15.077004553 _18_ RTR  --- 13 DSR 68 [13a 12 10 800] ------- [16:255 0:255 254 18] 5 [0 2] [1 2 5 0->16] [0 0 0 0->0]
f 15.077004553 _18_ RTR  --- 13 DSR 68 [13a 12 10 800] ------- [16:255 0:255 253 10] 5 [0 2] [1 2 5 0->16] [0 0 0 0->0]
r 15.079246789 _10_ RTR  --- 13 DSR 68 [13a a 12 800] ------- [16:255 0:255 253 10] 5 [0 2] [1 2 5 0->16] [0 0 0 0->0]
f 15.079246789 _10_ RTR  --- 13 DSR 68 [13a a 12 800] ------- [16:255 0:255 252 4] 5 [0 2] [1 2 5 0->16] [0 0 0 0->0]
s 15.080533392 _16_ RTR  --- 12 DSR 76 [0 0 0 0] ------- [16:255 0:255 254 17] 6 [0 2] [1 2 6 0->16] [0 0 0 0->0]
r 15.081315654 _0_ RTR  --- 6 DSR 60 [13a 0 4 800] ------- [16:255 0:255 252 0] 4 [0 2] [1 2 4 0->16] [0 0 0 0->0]
SFESTs 15.081315654 _0_ 0 [0 -> 16] 1(1) to 4 [0 |4 10 16 ]
SFESTs 15.081315654 _0_ 2 [0 -> 16] 1(1) to 4 [0 |4 10 16 ]
SFESTs 15.081315654 _0_ 9 [0 -> 16] 1(1) to 4 [0 |4 10 16 ]
s 15.081315654 _0_ RTR  --- 0 cbr 556 [0 0 0 0] ------- [0:0 16:0 32 4] [0] 0 0
r 15.087641890 _4_ RTR  --- 0 cbr 556 [13a 4 0 800] ------- [0:0 16:0 32 4] [0] 1 0
f 15.087641890 _4_ RTR  --- 0 cbr 556 [13a 4 0 800] ------- [0:0 16:0 31 10] [0] 1 0
r 15.089714346 _4_ RTR  --- 13 DSR 68 [13a 4 a 800] ------- [16:255 0:255 252 4] 5 [0 2] [1 2 5 0->16] [0 0 0 0->0]
f 15.089714346 _4_ RTR  --- 13 DSR 68 [13a 4 a 800] ------- [16:255 0:255 251 0] 5 [0 2] [1 2 5 0->16] [0 0 0 0->0]
r 15.095940346 _10_ RTR  --- 0 cbr 556 [13a a 4 800] ------- [0:0 16:0 31 10] [0] 2 0
f 15.095940346 _10_ RTR  --- 0 cbr 556 [13a a 4 800] ------- [0:0 16:0 30 16] [0] 2 0
r 15.098003249 _0_ RTR  --- 13 DSR 68 [13a 0 4 800] ------- [16:255 0:255 251 0] 5 [0 2] [1 2 5 0->16] [0 0 0 0->0]
r 15.100410740 _7_ RTR  --- 8 DSR 68 [13a 7 d 800] ------- [16:255 0:255 253 7] 5 [0 2] [1 2 5 0->16] [0 0 0 0->0]
f 15.100410740 _7_ RTR  --- 8 DSR 68 [13a 7 d 800] ------- [16:255 0:255 252 1] 5 [0 2] [1 2 5 0->16] [0 0 0 0->0]
r 15.102901740 _15_ RTR  --- 11 DSR 76 [13a f 10 800] ------- [16:255 0:255 254 15] 6 [0 2] [1 2 6 0->16] [0 0 0 0->0]
f 15.102901740 _15_ RTR  --- 11 DSR 76 [13a f 10 800] ------- [16:255 0:255 253 13] 6 [0 2] [1 2 6 0->16] [0 0 0 0->0]
r 15.105307976 _13_ RTR  --- 11 DSR 76 [13a d f 800] ------- [16:255 0:255 253 13] 6 [0 2] [1 2 6 0->16] [0 0 0 0->0]
f 15.105307976 _13_ RTR  --- 11 DSR 76 [13a d f 800] ------- [16:255 0:255 252 7] 6 [0 2] [1 2 6 0->16] [0 0 0 0->0]
r 15.107434309 _17_ RTR  --- 12 DSR 76 [13a 11 10 800] ------- [16:255 0:255 254 17] 6 [0 2] [1 2 6 0->16] [0 0 0 0->0]
f 15.107434309 _17_ RTR  --- 12 DSR 76 [13a 11 10 800] ------- [16:255 0:255 253 14] 6 [0 2] [1 2 6 0->16] [0 0 0 0->0]
r 15.109521055 _7_ RTR  --- 11 DSR 76 [13a 7 d 800] ------- [16:255 0:255 252 7] 6 [0 2] [1 2 6 0->16] [0 0 0 0->0]
f 15.109521055 _7_ RTR  --- 11 DSR 76 [13a 7 d 800] ------- [16:255 0:255 251 1] 6 [0 2] [1 2 6 0->16] [0 0 0 0->0]
s 15.111315654 _0_ RTR  --- 2 cbr 556 [0 0 0 0] ------- [0:0 16:0 32 4] [1] 0 0
r 15.115467388 _16_ RTR  --- 0 cbr 556 [13a 10 a 800] ------- [0:0 16:0 30 16] [0] 3 0
r 15.115467388 _16_ AGT  --- 0 cbr 512 [13a 10 a 800] ------- [0:0 16:0 30 16] [0] 3 0
r 15.117949624 _14_ RTR  --- 7 DSR 68 [13a e 10 800] ------- [16:255 0:255 254 14] 5 [0 2] [1 2 5 0->16] [0 0 0 0->0]
f 15.117949624 _14_ RTR  --- 7 DSR 68 [13a e 10 800] ------- [16:255 0:255 253 10] 5 [0 2] [1 2 5 0->16] [0 0 0 0->0]
r 15.121911860 _10_ RTR  --- 7 DSR 68 [13a a e 800] ------- [16:255 0:255 253 10] 5 [0 2] [1 2 5 0->16] [0 0 0 0->0]
f 15.121911860 _10_ RTR  --- 7 DSR 68 [13a a e 800] ------- [16:255 0:255 252 4] 5 [0 2] [1 2 5 0->16] [0 0 0 0->0]
r 15.124004058 _1_ RTR  --- 8 DSR 68 [13a 1 7 800] ------- [16:255 0:255 252 1] 5 [0 2] [1 2 5 0->16] [0 0 0 0->0]
f 15.124004058 _1_ RTR  --- 8 DSR 68 [13a 1 7 800] ------- [16:255 0:255 251 0] 5 [0 2] [1 2 5 0->16] [0 0 0 0->0]
r 15.126170724 _1_ RTR  --- 11 DSR 76 [13a 1 7 800] ------- [16:255 0:255 251 1] 6 [0 2] [1 2 6 0->16] [0 0 0 0->0]
f 15.126170724 _1_ RTR  --- 11 DSR 76 [13a 1 7 800] ------- [16:255 0:255 250 0] 6 [0 2] [1 2 6 0->16] [0 0 0 0->0]
r 15.128412724 _0_ RTR  --- 8 DSR 68 [13a 0 1 800] ------- [16:255 0:255 251 0] 5 [0 2] [1 2 5 0->16] [0 0 0 0->0]
r 15.130568853 _14_ RTR  --- 12 DSR 76 [13a e 11 800] ------- [16:255 0:255 253 14] 6 [0 2] [1 2 6 0->16] [0 0 0 0->0]
f 15.130568853 _14_ RTR  --- 12 DSR 76 [13a e 11 800] ------- [16:255 0:255 252 10] 6 [0 2] [1 2 6 0->16] [0 0 0 0->0]
s 15.131192234 _0_ AGT  --- 17 cbr 512 [0 0 0 0] ------- [0:0 16:0 32 0] [3] 0 0
r 15.131192234 _0_ RTR  --- 17 cbr 512 [0 0 0 0] ------- [0:0 16:0 32 0] [3] 0 0
SFs 15.131192234 _0_ 17 [0 -> 16] 1(0) to 4 
s 15.131192234 _0_ RTR  --- 17 cbr 532 [0 0 0 0] ------- [0:0 16:0 32 4] [3] 0 0
r 15.132775089 _10_ RTR  --- 12 DSR 76 [13a a e 800] ------- [16:255 0:255 252 10] 6 [0 2] [1 2 6 0->16] [0 0 0 0->0]
f 15.132775089 _10_ RTR  --- 12 DSR 76 [13a a e 800] ------- [16:255 0:255 251 4] 6 [0 2] [1 2 6 0->16] [0 0 0 0->0]
r 15.134837089 _4_ RTR  --- 7 DSR 68 [13a 4 a 800] ------- [16:255 0:255 252 4] 5 [0 2] [1 2 5 0->16] [0 0 0 0->0]
f 15.134837089 _4_ RTR  --- 7 DSR 68 [13a 4 a 800] ------- [16:255 0:255 251 0] 5 [0 2] [1 2 5 0->16] [0 0 0 0->0]
r 15.136939325 _0_ RTR  --- 7 DSR 68 [13a 0 4 800] ------- [16:255 0:255 251 0] 5 [0 2] [1 2 5 0->16] [0 0 0 0->0]
r 15.139425991 _0_ RTR  --- 11 DSR 76 [13a 0 1 800] ------- [16:255 0:255 250 0] 6 [0 2] [1 2 6 0->16] [0 0 0 0->0]
s 15.141315654 _0_ RTR  --- 9 cbr 556 [0 0 0 0] ------- [0:0 16:0 32 4] [2] 0 0
r 15.142337193 _4_ RTR  --- 12 DSR 76 [13a 4 a 800] ------- [16:255 0:255 251 4] 6 [0 2] [1 2 6 0->16] [0 0 0 0->0]
f 15.142337193 _4_ RTR  --- 12 DSR 76 [13a 4 a 800] ------- [16:255 0:255 250 0] 6 [0 2] [1 2 6 0->16] [0 0 0 0->0]
r 15.144583429 _0_ RTR  --- 12 DSR 76 [13a 0 4 800] ------- [16:255 0:255 250 0] 6 [0 2] [1 2 6 0->16] [0 0 0 0->0]
r 15.151429665 _4_ RTR  --- 2 cbr 556 [13a 4 0 800] ------- [0:0 16:0 32 4] [1] 1 0
f 15.151429665 _4_ RTR  --- 2 cbr 556 [13a 4 0 800] ------- [0:0 16:0 31 10] [1] 1 0
r 15.157164647 _4_ RTR  --- 17 cbr 532 [13a 4 0 800] ------- [0:0 16:0 32 4] [3] 1 0
SFf 15.157164647 _4_ 17 [0 -> 16] 1 to 10
f 15.157164647 _4_ RTR  --- 17 cbr 532 [13a 4 0 800] ------- [0:0 16:0 31 10] [3] 1 0
r 15.163090647 _10_ RTR  --- 2 cbr 556 [13a a 4 800] ------- [0:0 16:0 31 10] [1] 2 0
f 15.163090647 _10_ RTR  --- 2 cbr 556 [13a a 4 800] ------- [0:0 16:0 30 16] [1] 2 0
r 15.169136647 _16_ RTR  --- 2 cbr 556 [13a 10 a 800] ------- [0:0 16:0 30 16] [1] 3 0
r 15.169136647 _16_ AGT  --- 2 cbr 512 [13a 10 a 800] ------- [0:0 16:0 30 16] [1] 3 0
r 15.175395980 _10_ RTR  --- 17 cbr 532 [13a a 4 800] ------- [0:0 16:0 31 10] [3] 2 0
SFf 15.175395980 _10_ 17 [0 -> 16] 1 to 16
f 15.175395980 _10_ RTR  --- 17 cbr 532 [13a a 4 800] ------- [0:0 16:0 30 16] [3] 2 0
s 15.175888236 _0_ AGT  --- 18 cbr 512 [0 0 0 0] ------- [0:0 16:0 32 0] [4] 0 0
r 15.175888236 _0_ RTR  --- 18 cbr 512 [0 0 0 0] ------- [0:0 16:0 32 0] [4] 0 0
SFs 15.175888236 _0_ 18 [0 -> 16] 1(0) to 4 
s 15.175888236 _0_ RTR  --- 18 cbr 532 [0 0 0 0] ------- [0:0 16:0 32 4] [4] 0 0
r 15.181129980 _16_ RTR  --- 17 cbr 532 [13a 10 a 800] ------- [0:0 16:0 30 16] [3] 3 0
r 15.181129980 _16_ AGT  --- 17 cbr 512 [13a 10 a 800] ------- [0:0 16:0 30 16] [3] 3 0
r 15.187482011 _4_ RTR  --- 9 cbr 556 [13a 4 0 800] ------- [0:0 16:0 32 4] [2] 1 0
f 15.187482011 _4_ RTR  --- 9 cbr 556 [13a 4 0 800] ------- [0:0 16:0 31 10] [2] 1 0
r 15.193828011 _10_ RTR  --- 9 cbr 556 [13a a 4 800] ------- [0:0 16:0 31 10] [2] 2 0
f 15.193828011 _10_ RTR  --- 9 cbr 556 [13a a 4 800] ------- [0:0 16:0 30 16] [2] 2 0
r 15.200194011 _16_ RTR  --- 9 cbr 556 [13a 10 a 800] ------- [0:0 16:0 30 16] [2] 3 0
r 15.200194011 _16_ AGT  --- 9 cbr 512 [13a 10 a 800] ------- [0:0 16:0 30 16] [2] 3 0
r 15.206314042 _4_ RTR  --- 18 cbr 532 [13a 4 0 800] ------- [0:0 16:0 32 4] [4] 1 0
SFf 15.206314042 _4_ 18 [0 -> 16] 1 to 10
f 15.206314042 _4_ RTR  --- 18 cbr 532 [13a 4 0 800] ------- [0:0 16:0 31 10] [4] 1 0
r 15.212208042 _10_ RTR  --- 18 cbr 532 [13a a 4 800] ------- [0:0 16:0 31 10] [4] 2 0
SFf 15.212208042 _10_ 18 [0 -> 16] 1 to 16
f 15.212208042 _10_ RTR  --- 18 cbr 532 [13a a 4 800] ------- [0:0 16:0 30 16] [4] 2 0
r 15.218322042 _16_ RTR  --- 18 cbr 532 [13a 10 a 800] ------- [0:0 16:0 30 16] [4] 3 0
r 15.218322042 _16_ AGT  --- 18 cbr 512 [13a 10 a 800] ------- [0:0 16:0 30 16] [4] 3 0
s 15.237435602 _0_ AGT  --- 19 cbr 512 [0 0 0 0] ------- [0:0 16:0 32 0] [5] 0 0
r 15.237435602 _0_ RTR  --- 19 cbr 512 [0 0 0 0] ------- [0:0 16:0 32 0] [5] 0 0
SFs 15.237435602 _0_ 19 [0 -> 16] 1(0) to 4 
s 15.237435602 _0_ RTR  --- 19 cbr 532 [0 0 0 0] ------- [0:0 16:0 32 4] [5] 0 0
r 15.243125838 _4_ RTR  --- 19 cbr 532 [13a 4 0 800] ------- [0:0 16:0 32 4] [5] 1 0
SFf 15.243125838 _4_ 19 [0 -> 16] 1 to 10
f 15.243125838 _4_ RTR  --- 19 cbr 532 [13a 4 0 800] ------- [0:0 16:0 31 10] [5] 1 0
r 15.249019838 _10_ RTR  --- 19 cbr 532 [13a a 4 800] ------- [0:0 16:0 31 10] [5] 2 0
SFf 15.249019838 _10_ 19 [0 -> 16] 1 to 16
f 15.249019838 _10_ RTR  --- 19 cbr 532 [13a a 4 800] ------- [0:0 16:0 30 16] [5] 2 0
r 15.255153838 _16_ RTR  --- 19 cbr 532 [13a 10 a 800] ------- [0:0 16:0 30 16] [5] 3 0
r 15.255153838 _16_ AGT  --- 19 cbr 512 [13a 10 a 800] ------- [0:0 16:0 30 16] [5] 3 0
s 15.307881473 _0_ AGT  --- 20 cbr 512 [0 0 0 0] ------- [0:0 16:0 32 0] [6] 0 0
r 15.307881473 _0_ RTR  --- 20 cbr 512 [0 0 0 0] ------- [0:0 16:0 32 0] [6] 0 0
SFs 15.307881473 _0_ 20 [0 -> 16] 1(0) to 4 
s 15.307881473 _0_ RTR  --- 20 cbr 532 [0 0 0 0] ------- [0:0 16:0 32 4] [6] 0 0
r 15.313511709 _4_ RTR  --- 20 cbr 532 [13a 4 0 800] ------- [0:0 16:0 32 4] [6] 1 0
SFf 15.313511709 _4_ 20 [0 -> 16] 1 to 10
f 15.313511709 _4_ RTR  --- 20 cbr 532 [13a 4 0 800] ------- [0:0 16:0 31 10] [6] 1 0
r 15.319685709 _10_ RTR  --- 20 cbr 532 [13a a 4 800] ------- [0:0 16:0 31 10] [6] 2 0
SFf 15.319685709 _10_ 20 [0 -> 16] 1 to 16
f 15.319685709 _10_ RTR  --- 20 cbr 532 [13a a 4 800] ------- [0:0 16:0 30 16] [6] 2 0
r 15.325979709 _16_ RTR  --- 20 cbr 532 [13a 10 a 800] ------- [0:0 16:0 30 16] [6] 3 0
r 15.325979709 _16_ AGT  --- 20 cbr 512 [13a 10 a 800] ------- [0:0 16:0 30 16] [6] 3 0
s 15.378446556 _0_ AGT  --- 21 cbr 512 [0 0 0 0] ------- [0:0 16:0 32 0] [7] 0 0
r 15.378446556 _0_ RTR  --- 21 cbr 512 [0 0 0 0] ------- [0:0 16:0 32 0] [7] 0 0
SFs 15.378446556 _0_ 21 [0 -> 16] 1(0) to 4 