n -t * -s 0  -x 100 -y 0 -Z 0 -z 30  -v circle -c black
n -t * -s 1  -x 300 -y 0 -Z 0 -z 30  -v circle -c black
n -t * -s 2  -x 500 -y 0 -Z 0 -z 30  -v circle -c black
n -t * -s 3  -x 100 -y 100 -Z 0 -z 30  -v circle -c black
n -t * -s 4  -x 300 -y 100 -Z 0 -z 30  -v circle -c black
n -t * -s 5  -x 500 -y 100 -Z 0 -z 30  -v circle -c black
n -t * -s 6  -x 100 -y 200 -Z 0 -z 30  -v circle -c black
n -t * -s 7  -x 300 -y 200 -Z 0 -z 30  -v circle -c black
n -t * -s 8  -x 500 -y 200 -Z 0 -z 30  -v circle -c black
n -t * -s 9  -x 100 -y 300 -Z 0 -z 30  -v circle -c black
n -t * -s 10  -x 300 -y 300 -Z 0 -z 30  -v circle -c black
n -t * -s 11  -x 500 -y 300 -Z 0 -z 30  -v circle -c black
n -t * -s 12  -x 100 -y 400 -Z 0 -z 30  -v circle -c black
n -t * -s 13  -x 300 -y 400 -Z 0 -z 30  -v circle -c black
n -t * -s 14  -x 500 -y 400 -Z 0 -z 30  -v circle -c black
n -t * -s 15  -x 100 -y 500 -Z 0 -z 30  -v circle -c black
n -t * -s 16  -x 300 -y 500 -Z 0 -z 30  -v circle -c black
n -t * -s 17  -x 500 -y 500 -Z 0 -z 30  -v circle -c black
n -t * -s 18  -x 400 -y 500 -Z 0 -z 30  -v circle -c black
n -t * -s 19  -x 200 -y 500 -Z 0 -z 30  -v circle -c black
V -t * -v 1.0a5 -a 0
W -t * -x 500 -y 500
A -t * -n 1 -p 0 -o 0xffffffff -c 31 -a 1
A -t * -h 1 -m 2147483647 -s 0
+ -t 15.000000000 -s 0 -d -1 -p cbr -e 512 -c 2 -a 0 -i 0 -k AGT 
- -t 15.000000000 -s 0 -d -1 -p cbr -e 512 -c 2 -a 0 -i 0 -k AGT
h -t 15.000000000 -s 0 -d -1 -p cbr -e 512 -c 2 -a 0 -i 0 -k AGT
+ -t 15.009488615 -s 0 -d -1 -p DSR -e 32 -c 2 -a 0 -i 1 -k RTR 
- -t 15.009488615 -s 0 -d -1 -p DSR -e 32 -c 2 -a 0 -i 1 -k RTR
h -t 15.009488615 -s 0 -d -1 -p DSR -e 32 -c 2 -a 0 -i 1 -k RTR
+ -t 15.026033893 -s 0 -d -1 -p cbr -e 512 -c 2 -a 0 -i 2 -k AGT 
- -t 15.026033893 -s 0 -d -1 -p cbr -e 512 -c 2 -a 0 -i 2 -k AGT
h -t 15.026033893 -s 0 -d -1 -p cbr -e 512 -c 2 -a 0 -i 2 -k AGT
+ -t 15.039006993 -s 0 -d -1 -p DSR -e 32 -c 2 -a 0 -i 4 -k RTR 
- -t 15.039006993 -s 0 -d -1 -p DSR -e 32 -c 2 -a 0 -i 4 -k RTR
h -t 15.039006993 -s 0 -d -1 -p DSR -e 32 -c 2 -a 0 -i 4 -k RTR
+ -t 15.043455282 -s 1 -d -1 -p DSR -e 48 -c 2 -a 0 -i 4 -k RTR 
- -t 15.043455282 -s 1 -d -1 -p DSR -e 48 -c 2 -a 0 -i 4 -k RTR
h -t 15.043455282 -s 1 -d -1 -p DSR -e 48 -c 2 -a 0 -i 4 -k RTR
+ -t 15.046922189 -s 2 -d -1 -p DSR -e 68 -c 2 -a 0 -i 4 -k RTR 
- -t 15.046922189 -s 2 -d -1 -p DSR -e 68 -c 2 -a 0 -i 4 -k RTR
h -t 15.046922189 -s 2 -d -1 -p DSR -e 68 -c 2 -a 0 -i 4 -k RTR
+ -t 15.048247951 -s 4 -d -1 -p DSR -e 48 -c 2 -a 0 -i 4 -k RTR 
- -t 15.048247951 -s 4 -d -1 -p DSR -e 48 -c 2 -a 0 -i 4 -k RTR
h -t 15.048247951 -s 4 -d -1 -p DSR -e 48 -c 2 -a 0 -i 4 -k RTR
+ -t 15.048465450 -s 3 -d -1 -p DSR -e 48 -c 2 -a 0 -i 4 -k RTR 
- -t 15.048465450 -s 3 -d -1 -p DSR -e 48 -c 2 -a 0 -i 4 -k RTR
h -t 15.048465450 -s 3 -d -1 -p DSR -e 48 -c 2 -a 0 -i 4 -k RTR
+ -t 15.048552823 -s 6 -d -1 -p DSR -e 48 -c 2 -a 0 -i 4 -k RTR 
- -t 15.048552823 -s 6 -d -1 -p DSR -e 48 -c 2 -a 0 -i 4 -k RTR
h -t 15.048552823 -s 6 -d -1 -p DSR -e 48 -c 2 -a 0 -i 4 -k RTR
+ -t 15.050579561 -s 10 -d -1 -p DSR -e 68 -c 2 -a 0 -i 4 -k RTR 
- -t 15.050579561 -s 10 -d -1 -p DSR -e 68 -c 2 -a 0 -i 4 -k RTR
h -t 15.050579561 -s 10 -d -1 -p DSR -e 68 -c 2 -a 0 -i 4 -k RTR
+ -t 15.051393292 -s 7 -d -1 -p DSR -e 68 -c 2 -a 0 -i 4 -k RTR 
- -t 15.051393292 -s 7 -d -1 -p DSR -e 68 -c 2 -a 0 -i 4 -k RTR
h -t 15.051393292 -s 7 -d -1 -p DSR -e 68 -c 2 -a 0 -i 4 -k RTR
+ -t 15.052240172 -s 8 -d -1 -p DSR -e 92 -c 2 -a 0 -i 4 -k RTR 
- -t 15.052240172 -s 8 -d -1 -p DSR -e 92 -c 2 -a 0 -i 4 -k RTR
h -t 15.052240172 -s 8 -d -1 -p DSR -e 92 -c 2 -a 0 -i 4 -k RTR
+ -t 15.054511468 -s 14 -d -1 -p DSR -e 92 -c 2 -a 0 -i 4 -k RTR 
- -t 15.054511468 -s 14 -d -1 -p DSR -e 92 -c 2 -a 0 -i 4 -k RTR
h -t 15.054511468 -s 14 -d -1 -p DSR -e 92 -c 2 -a 0 -i 4 -k RTR
+ -t 15.054837510 -s 5 -d -1 -p DSR -e 68 -c 2 -a 0 -i 4 -k RTR 
- -t 15.054837510 -s 5 -d -1 -p DSR -e 68 -c 2 -a 0 -i 4 -k RTR
h -t 15.054837510 -s 5 -d -1 -p DSR -e 68 -c 2 -a 0 -i 4 -k RTR
+ -t 15.057006990 -s 9 -d -1 -p DSR -e 68 -c 2 -a 0 -i 4 -k RTR 
- -t 15.057006990 -s 9 -d -1 -p DSR -e 68 -c 2 -a 0 -i 4 -k RTR
h -t 15.057006990 -s 9 -d -1 -p DSR -e 68 -c 2 -a 0 -i 4 -k RTR
+ -t 15.058403106 -s 11 -d -1 -p DSR -e 92 -c 2 -a 0 -i 4 -k RTR 
- -t 15.058403106 -s 11 -d -1 -p DSR -e 92 -c 2 -a 0 -i 4 -k RTR
h -t 15.058403106 -s 11 -d -1 -p DSR -e 92 -c 2 -a 0 -i 4 -k RTR
+ -t 15.058724065 -s 16 -d 10 -p DSR -e 60 -c 2 -a 0 -i 6 -k RTR 
- -t 15.058724065 -s 16 -d 10 -p DSR -e 60 -c 2 -a 0 -i 6 -k RTR
h -t 15.058724065 -s 16 -d 10 -p DSR -e 60 -c 2 -a 0 -i 6 -k RTR
+ -t 15.058746448 -s 13 -d -1 -p DSR -e 92 -c 2 -a 0 -i 4 -k RTR 
- -t 15.058746448 -s 13 -d -1 -p DSR -e 92 -c 2 -a 0 -i 4 -k RTR
h -t 15.058746448 -s 13 -d -1 -p DSR -e 92 -c 2 -a 0 -i 4 -k RTR
+ -t 15.060034813 -s 19 -d -1 -p DSR -e 92 -c 2 -a 0 -i 4 -k RTR 
- -t 15.060034813 -s 19 -d -1 -p DSR -e 92 -c 2 -a 0 -i 4 -k RTR
h -t 15.060034813 -s 19 -d -1 -p DSR -e 92 -c 2 -a 0 -i 4 -k RTR
+ -t 15.060102439 -s 17 -d -1 -p DSR -e 120 -c 2 -a 0 -i 4 -k RTR 
- -t 15.060102439 -s 17 -d -1 -p DSR -e 120 -c 2 -a 0 -i 4 -k RTR
h -t 15.060102439 -s 17 -d -1 -p DSR -e 120 -c 2 -a 0 -i 4 -k RTR
+ -t 15.060146918 -s 12 -d -1 -p DSR -e 68 -c 2 -a 0 -i 4 -k RTR 
- -t 15.060146918 -s 12 -d -1 -p DSR -e 68 -c 2 -a 0 -i 4 -k RTR
h -t 15.060146918 -s 12 -d -1 -p DSR -e 68 -c 2 -a 0 -i 4 -k RTR
+ -t 15.061662781 -s 10 -d 4 -p DSR -e 60 -c 2 -a 0 -i 6 -k RTR 
- -t 15.061662781 -s 10 -d 4 -p DSR -e 60 -c 2 -a 0 -i 6 -k RTR
h -t 15.061662781 -s 10 -d 4 -p DSR -e 60 -c 2 -a 0 -i 6 -k RTR
+ -t 15.061758039 -s 16 -d 13 -p DSR -e 68 -c 2 -a 0 -i 8 -k RTR 
- -t 15.061758039 -s 16 -d 13 -p DSR -e 68 -c 2 -a 0 -i 8 -k RTR
h -t 15.061758039 -s 16 -d 13 -p DSR -e 68 -c 2 -a 0 -i 8 -k RTR
+ -t 15.062014885 -s 15 -d -1 -p DSR -e 120 -c 2 -a 0 -i 4 -k RTR 
- -t 15.062014885 -s 15 -d -1 -p DSR -e 120 -c 2 -a 0 -i 4 -k RTR
h -t 15.062014885 -s 15 -d -1 -p DSR -e 120 -c 2 -a 0 -i 4 -k RTR
+ -t 15.062443092 -s 0 -d -1 -p cbr -e 512 -c 2 -a 0 -i 9 -k AGT 
- -t 15.062443092 -s 0 -d -1 -p cbr -e 512 -c 2 -a 0 -i 9 -k AGT
h -t 15.062443092 -s 0 -d -1 -p cbr -e 512 -c 2 -a 0 -i 9 -k AGT
+ -t 15.063046263 -s 18 -d -1 -p DSR -e 92 -c 2 -a 0 -i 4 -k RTR 
- -t 15.063046263 -s 18 -d -1 -p DSR -e 92 -c 2 -a 0 -i 4 -k RTR
h -t 15.063046263 -s 18 -d -1 -p DSR -e 92 -c 2 -a 0 -i 4 -k RTR
+ -t 15.063066451 -s 16 -d 14 -p DSR -e 68 -c 2 -a 0 -i 7 -k RTR 
- -t 15.063066451 -s 16 -d 14 -p DSR -e 68 -c 2 -a 0 -i 7 -k RTR
h -t 15.063066451 -s 16 -d 14 -p DSR -e 68 -c 2 -a 0 -i 7 -k RTR
+ -t 15.063700781 -s 4 -d 0 -p DSR -e 60 -c 2 -a 0 -i 6 -k RTR 
- -t 15.063700781 -s 4 -d 0 -p DSR -e 60 -c 2 -a 0 -i 6 -k RTR
h -t 15.063700781 -s 4 -d 0 -p DSR -e 60 -c 2 -a 0 -i 6 -k RTR
+ -t 15.074344691 -s 16 -d 18 -p DSR -e 68 -c 2 -a 0 -i 13 -k RTR 
- -t 15.074344691 -s 16 -d 18 -p DSR -e 68 -c 2 -a 0 -i 13 -k RTR
h -t 15.074344691 -s 16 -d 18 -p DSR -e 68 -c 2 -a 0 -i 13 -k RTR
+ -t 15.074863219 -s 13 -d 7 -p DSR -e 68 -c 2 -a 0 -i 8 -k RTR 
- -t 15.074863219 -s 13 -d 7 -p DSR -e 68 -c 2 -a 0 -i 8 -k RTR
h -t 15.074863219 -s 13 -d 7 -p DSR -e 68 -c 2 -a 0 -i 8 -k RTR
+ -t 15.075815607 -s 16 -d 15 -p DSR -e 76 -c 2 -a 0 -i 11 -k RTR 
- -t 15.075815607 -s 16 -d 15 -p DSR -e 76 -c 2 -a 0 -i 11 -k RTR
h -t 15.075815607 -s 16 -d 15 -p DSR -e 76 -c 2 -a 0 -i 11 -k RTR
+ -t 15.077004553 -s 18 -d 10 -p DSR -e 68 -c 2 -a 0 -i 13 -k RTR 
- -t 15.077004553 -s 18 -d 10 -p DSR -e 68 -c 2 -a 0 -i 13 -k RTR
h -t 15.077004553 -s 18 -d 10 -p DSR -e 68 -c 2 -a 0 -i 13 -k RTR
+ -t 15.079246789 -s 10 -d 4 -p DSR -e 68 -c 2 -a 0 -i 13 -k RTR 
- -t 15.079246789 -s 10 -d 4 -p DSR -e 68 -c 2 -a 0 -i 13 -k RTR
h -t 15.079246789 -s 10 -d 4 -p DSR -e 68 -c 2 -a 0 -i 13 -k RTR
+ -t 15.080533392 -s 16 -d 17 -p DSR -e 76 -c 2 -a 0 -i 12 -k RTR 
- -t 15.080533392 -s 16 -d 17 -p DSR -e 76 -c 2 -a 0 -i 12 -k RTR
h -t 15.080533392 -s 16 -d 17 -p DSR -e 76 -c 2 -a 0 -i 12 -k RTR
+ -t 15.081315654 -s 0 -d 4 -p cbr -e 556 -c 2 -a 0 -i 0 -k RTR 
- -t 15.081315654 -s 0 -d 4 -p cbr -e 556 -c 2 -a 0 -i 0 -k RTR
h -t 15.081315654 -s 0 -d 4 -p cbr -e 556 -c 2 -a 0 -i 0 -k RTR
+ -t 15.087641890 -s 4 -d 10 -p cbr -e 556 -c 2 -a 0 -i 0 -k RTR 
- -t 15.087641890 -s 4 -d 10 -p cbr -e 556 -c 2 -a 0 -i 0 -k RTR
h -t 15.087641890 -s 4 -d 10 -p cbr -e 556 -c 2 -a 0 -i 0 -k RTR
+ -t 15.089714346 -s 4 -d 0 -p DSR -e 68 -c 2 -a 0 -i 13 -k RTR 
- -t 15.089714346 -s 4 -d 0 -p DSR -e 68 -c 2 -a 0 -i 13 -k RTR
h -t 15.089714346 -s 4 -d 0 -p DSR -e 68 -c 2 -a 0 -i 13 -k RTR
+ -t 15.095940346 -s 10 -d 16 -p cbr -e 556 -c 2 -a 0 -i 0 -k RTR 
- -t 15.095940346 -s 10 -d 16 -p cbr -e 556 -c 2 -a 0 -i 0 -k RTR
h -t 15.095940346 -s 10 -d 16 -p cbr -e 556 -c 2 -a 0 -i 0 -k RTR
+ -t 15.100410740 -s 7 -d 1 -p DSR -e 68 -c 2 -a 0 -i 8 -k RTR 
- -t 15.100410740 -s 7 -d 1 -p DSR -e 68 -c 2 -a 0 -i 8 -k RTR
h -t 15.100410740 -s 7 -d 1 -p DSR -e 68 -c 2 -a 0 -i 8 -k RTR
+ -t 15.102901740 -s 15 -d 13 -p DSR -e 76 -c 2 -a 0 -i 11 -k RTR 
- -t 15.102901740 -s 15 -d 13 -p DSR -e 76 -c 2 -a 0 -i 11 -k RTR
h -t 15.102901740 -s 15 -d 13 -p DSR -e 76 -c 2 -a 0 -i 11 -k RTR
+ -t 15.105307976 -s 13 -d 7 -p DSR -e 76 -c 2 -a 0 -i 11 -k RTR 
- -t 15.105307976 -s 13 -d 7 -p DSR -e 76 -c 2 -a 0 -i 11 -k RTR
h -t 15.105307976 -s 13 -d 7 -p DSR -e 76 -c 2 -a 0 -i 11 -k RTR
+ -t 15.107434309 -s 17 -d 14 -p DSR -e 76 -c 2 -a 0 -i 12 -k RTR 
- -t 15.107434309 -s 17 -d 14 -p DSR -e 76 -c 2 -a 0 -i 12 -k RTR
h -t 15.107434309 -s 17 -d 14 -p DSR -e 76 -c 2 -a 0 -i 12 -k RTR
+ -t 15.109521055 -s 7 -d 1 -p DSR -e 76 -c 2 -a 0 -i 11 -k RTR 
- -t 15.109521055 -s 7 -d 1 -p DSR -e 76 -c 2 -a 0 -i 11 -k RTR
h -t 15.109521055 -s 7 -d 1 -p DSR -e 76 -c 2 -a 0 -i 11 -k RTR
+ -t 15.111315654 -s 0 -d 4 -p cbr -e 556 -c 2 -a 0 -i 2 -k RTR 
- -t 15.111315654 -s 0 -d 4 -p cbr -e 556 -c 2 -a 0 -i 2 -k RTR
h -t 15.111315654 -s 0 -d 4 -p cbr -e 556 -c 2 -a 0 -i 2 -k RTR
r -t 15.115467388 -s 16 -d 16 -p cbr -e 512 -c 2 -a 0 -i 0 -k AGT
+ -t 15.117949624 -s 14 -d 10 -p DSR -e 68 -c 2 -a 0 -i 7 -k RTR 
- -t 15.117949624 -s 14 -d 10 -p DSR -e 68 -c 2 -a 0 -i 7 -k RTR
h -t 15.117949624 -s 14 -d 10 -p DSR -e 68 -c 2 -a 0 -i 7 -k RTR
+ -t 15.121911860 -s 10 -d 4 -p DSR -e 68 -c 2 -a 0 -i 7 -k RTR 
- -t 15.121911860 -s 10 -d 4 -p DSR -e 68 -c 2 -a 0 -i 7 -k RTR
h -t 15.121911860 -s 10 -d 4 -p DSR -e 68 -c 2 -a 0 -i 7 -k RTR
+ -t 15.124004058 -s 1 -d 0 -p DSR -e 68 -c 2 -a 0 -i 8 -k RTR 
- -t 15.124004058 -s 1 -d 0 -p DSR -e 68 -c 2 -a 0 -i 8 -k RTR
h -t 15.124004058 -s 1 -d 0 -p DSR -e 68 -c 2 -a 0 -i 8 -k RTR
+ -t 15.126170724 -s 1 -d 0 -p DSR -e 76 -c 2 -a 0 -i 11 -k RTR 
- -t 15.126170724 -s 1 -d 0 -p DSR -e 76 -c 2 -a 0 -i 11 -k RTR
h -t 15.126170724 -s 1 -d 0 -p DSR -e 76 -c 2 -a 0 -i 11 -k RTR
+ -t 15.130568853 -s 14 -d 10 -p DSR -e 76 -c 2 -a 0 -i 12 -k RTR 
- -t 15.130568853 -s 14 -d 10 -p DSR -e 76 -c 2 -a 0 -i 12 -k RTR
h -t 15.130568853 -s 14 -d 10 -p DSR -e 76 -c 2 -a 0 -i 12 -k RTR
+ -t 15.131192234 -s 0 -d -1 -p cbr -e 512 -c 2 -a 0 -i 17 -k AGT 
- -t 15.131192234 -s 0 -d -1 -p cbr -e 512 -c 2 -a 0 -i 17 -k AGT
h -t 15.131192234 -s 0 -d -1 -p cbr -e 512 -c 2 -a 0 -i 17 -k AGT
+ -t 15.131192234 -s 0 -d 4 -p cbr -e 532 -c 2 -a 0 -i 17 -k RTR 
- -t 15.131192234 -s 0 -d 4 -p cbr -e 532 -c 2 -a 0 -i 17 -k RTR
h -t 15.131192234 -s 0 -d 4 -p cbr -e 532 -c 2 -a 0 -i 17 -k RTR
+ -t 15.132775089 -s 10 -d 4 -p DSR -e 76 -c 2 -a 0 -i 12 -k RTR 
- -t 15.132775089 -s 10 -d 4 -p DSR -e 76 -c 2 -a 0 -i 12 -k RTR
h -t 15.132775089 -s 10 -d 4 -p DSR -e 76 -c 2 -a 0 -i 12 -k RTR
+ -t 15.134837089 -s 4 -d 0 -p DSR -e 68 -c 2 -a 0 -i 7 -k RTR 
- -t 15.134837089 -s 4 -d 0 -p DSR -e 68 -c 2 -a 0 -i 7 -k RTR
h -t 15.134837089 -s 4 -d 0 -p DSR -e 68 -c 2 -a 0 -i 7 -k RTR
+ -t 15.141315654 -s 0 -d 4 -p cbr -e 556 -c 2 -a 0 -i 9 -k RTR 
- -t 15.141315654 -s 0 -d 4 -p cbr -e 556 -c 2 -a 0 -i 9 -k RTR
h -t 15.141315654 -s 0 -d 4 -p cbr -e 556 -c 2 -a 0 -i 9 -k RTR
+ -t 15.142337193 -s 4 -d 0 -p DSR -e 76 -c 2 -a 0 -i 12 -k RTR 
- -t 15.142337193 -s 4 -d 0 -p DSR -e 76 -c 2 -a 0 -i 12 -k RTR
h -t 15.142337193 -s 4 -d 0 -p DSR -e 76 -c 2 -a 0 -i 12 -k RTR
+ -t 15.151429665 -s 4 -d 10 -p cbr -e 556 -c 2 -a 0 -i 2 -k RTR 
- -t 15.151429665 -s 4 -d 10 -p cbr -e 556 -c 2 -a 0 -i 2 -k RTR
h -t 15.151429665 -s 4 -d 10 -p cbr -e 556 -c 2 -a 0 -i 2 -k RTR
+ -t 15.157164647 -s 4 -d 10 -p cbr -e 532 -c 2 -a 0 -i 17 -k RTR 
- -t 15.157164647 -s 4 -d 10 -p cbr -e 532 -c 2 -a 0 -i 17 -k RTR
h -t 15.157164647 -s 4 -d 10 -p cbr -e 532 -c 2 -a 0 -i 17 -k RTR
+ -t 15.163090647 -s 10 -d 16 -p cbr -e 556 -c 2 -a 0 -i 2 -k RTR 
- -t 15.163090647 -s 10 -d 16 -p cbr -e 556 -c 2 -a 0 -i 2 -k RTR
h -t 15.163090647 -s 10 -d 16 -p cbr -e 556 -c 2 -a 0 -i 2 -k RTR
r -t 15.169136647 -s 16 -d 16 -p cbr -e 512 -c 2 -a 0 -i 2 -k AGT
+ -t 15.175395980 -s 10 -d 16 -p cbr -e 532 -c 2 -a 0 -i 17 -k RTR 
- -t 15.175395980 -s 10 -d 16 -p cbr -e 532 -c 2 -a 0 -i 17 -k RTR
h -t 15.175395980 -s 10 -d 16 -p cbr -e 532 -c 2 -a 0 -i 17 -k RTR
+ -t 15.175888236 -s 0 -d -1 -p cbr -e 512 -c 2 -a 0 -i 18 -k AGT 
- -t 15.175888236 -s 0 -d -1 -p cbr -e 512 -c 2 -a 0 -i 18 -k AGT
h -t 15.175888236 -s 0 -d -1 -p cbr -e 512 -c 2 -a 0 -i 18 -k AGT
+ -t 15.175888236 -s 0 -d 4 -p cbr -e 532 -c 2 -a 0 -i 18 -k RTR 
- -t 15.175888236 -s 0 -d 4 -p cbr -e 532 -c 2 -a 0 -i 18 -k RTR
h -t 15.175888236 -s 0 -d 4 -p cbr -e 532 -c 2 -a 0 -i 18 -k RTR
r -t 15.181129980 -s 16 -d 16 -p cbr -e 512 -c 2 -a 0 -i 17 -k AGT
+ -t 15.187482011 -s 4 -d 10 -p cbr -e 556 -c 2 -a 0 -i 9 -k RTR 
- -t 15.187482011 -s 4 -d 10 -p cbr -e 556 -c 2 -a 0 -i 9 -k RTR
h -t 15.187482011 -s 4 -d 10 -p cbr -e 556 -c 2 -a 0 -i 9 -k RTR
+ -t 15.193828011 -s 10 -d 16 -p cbr -e 556 -c 2 -a 0 -i 9 -k RTR 
- -t 15.193828011 -s 10 -d 16 -p cbr -e 556 -c 2 -a 0 -i 9 -k RTR
h -t 15.193828011 -s 10 -d 16 -p cbr -e 556 -c 2 -a 0 -i 9 -k RTR
r -t 15.200194011 -s 16 -d 16 -p cbr -e 512 -c 2 -a 0 -i 9 -k AGT
+ -t 15.206314042 -s 4 -d 10 -p cbr -e 532 -c 2 -a 0 -i 18 -k RTR 
- -t 15.206314042 -s 4 -d 10 -p cbr -e 532 -c 2 -a 0 -i 18 -k RTR
h -t 15.206314042 -s 4 -d 10 -p cbr -e 532 -c 2 -a 0 -i 18 -k RTR
+ -t 15.212208042 -s 10 -d 16 -p cbr -e 532 -c 2 -a 0 -i 18 -k RTR 
- -t 15.212208042 -s 10 -d 16 -p cbr -e 532 -c 2 -a 0 -i 18 -k RTR
h -t 15.212208042 -s 10 -d 16 -p cbr -e 532 -c 2 -a 0 -i 18 -k RTR
r -t 15.218322042 -s 16 -d 16 -p cbr -e 512 -c 2 -a 0 -i 18 -k AGT
+ -t 15.237435602 -s 0 -d -1 -p cbr -e 512 -c 2 -a 0 -i 19 -k AGT 
- -t 15.237435602 -s 0 -d -1 -p cbr -e 512 -c 2 -a 0 -i 19 -k AGT
h -t 15.237435602 -s 0 -d -1 -p cbr -e 512 -c 2 -a 0 -i 19 -k AGT
+ -t 15.237435602 -s 0 -d 4 -p cbr -e 532 -c 2 -a 0 -i 19 -k RTR 
- -t 15.237435602 -s 0 -d 4 -p cbr -e 532 -c 2 -a 0 -i 19 -k RTR
h -t 15.237435602 -s 0 -d 4 -p cbr -e 532 -c 2 -a 0 -i 19 -k RTR
+ -t 15.243125838 -s 4 -d 10 -p cbr -e 532 -c 2 -a 0 -i 19 -k RTR 
- -t 15.243125838 -s 4 -d 10 -p cbr -e 532 -c 2 -a 0 -i 19 -k RTR
h -t 15.243125838 -s 4 -d 10 -p cbr -e 532 -c 2 -a 0 -i 19 -k RTR
+ -t 15.249019838 -s 10 -d 16 -p cbr -e 532 -c 2 -a 0 -i 19 -k RTR 
- -t 15.249019838 -s 10 -d 16 -p cbr -e 532 -c 2 -a 0 -i 19 -k RTR
h -t 15.249019838 -s 10 -d 16 -p cbr -e 532 -c 2 -a 0 -i 19 -k RTR
r -t 15.255153838 -s 16 -d 16 -p cbr -e 512 -c 2 -a 0 -i 19 -k AGT
+ -t 15.307881473 -s 0 -d -1 -p cbr -e 512 -c 2 -a 0 -i 20 -k AGT 
- -t 15.307881473 -s 0 -d -1 -p cbr -e 512 -c 2 -a 0 -i 20 -k AGT
h -t 15.307881473 -s 0 -d -1 -p cbr -e 512 -c 2 -a 0 -i 20 -k AGT
+ -t 15.307881473 -s 0 -d 4 -p cbr -e 532 -c 2 -a 0 -i 20 -k RTR 
- -t 15.307881473 -s 0 -d 4 -p cbr -e 532 -c 2 -a 0 -i 20 -k RTR
h -t 15.307881473 -s 0 -d 4 -p cbr -e 532 -c 2 -a 0 -i 20 -k RTR
+ -t 15.313511709 -s 4 -d 10 -p cbr -e 532 -c 2 -a 0 -i 20 -k RTR 
- -t 15.313511709 -s 4 -d 10 -p cbr -e 532 -c 2 -a 0 -i 20 -k RTR
h -t 15.313511709 -s 4 -d 10 -p cbr -e 532 -c 2 -a 0 -i 20 -k RTR
+ -t 15.319685709 -s 10 -d 16 -p cbr -e 532 -c 2 -a 0 -i 20 -k RTR 
- -t 15.319685709 -s 10 -d 16 -p cbr -e 532 -c 2 -a 0 -i 20 -k RTR
h -t 15.319685709 -s 10 -d 16 -p cbr -e 532 -c 2 -a 0 -i 20 -k RTR
r -t 15.325979709 -s 16 -d 16 -p cbr -e 512 -c 2 -a 0 -i 20 -k AGT
+ -t 15.378446556 -s 0 -d -1 -p cbr -e 512 -c 2 -a 0 -i 21 -k AGT 
- -t 15.378446556 -s 0 -d -1 -p cbr -e 512 -c 2 -a 0 -i 21 -k AGT
h -t 15.378446556 -s 0 -d -1 -p cbr -e 512 -c 2 -a 0 -i 21 -k AGT
+ -t 15.378446556 -s 0 -d 4 -p cbr -e 532 -c 2 -a 0 -i 21 -k RTR 
- -t 15.378446556 -s 0 -d 4 -p cbr -e 532 -c 2 -a 0 -i 21 -k RTR
h -t 15.378446556 -s 0 -d 4 -p cbr -e 532 -c 2 -a 0 -i 21 -k RTR
+ -t 15.384436792 -s 4 -d 10 -p cbr -e 532 -c 2 -a 0 -i 21 -k RTR 
- -t 15.384436792 -s 4 -d 10 -p cbr -e 532 -c 2 -a 0 -i 21 -k RTR
h -t 15.384436792 -s 4 -d 10 -p cbr -e 532 -c 2 -a 0 -i 21 -k RTR
+ -t 15.390590792 -s 10 -d 16 -p cbr -e 532 -c 2 -a 0 -i 21 -k RTR 
- -t 15.390590792 -s 10 -d 16 -p cbr -e 532 -c 2 -a 0 -i 21 -k RTR
h -t 15.390590792 -s 10 -d 16 -p cbr -e 532 -c 2 -a 0 -i 21 -k RTR
r -t 15.396684792 -s 16 -d 16 -p cbr -e 512 -c 2 -a 0 -i 21 -k AGT
+ -t 15.408090912 -s 0 -d -1 -p cbr -e 512 -c 2 -a 0 -i 22 -k AGT 
- -t 15.408090912 -s 0 -d -1 -p cbr -e 512 -c 2 -a 0 -i 22 -k AGT
h -t 15.408090912 -s 0 -d -1 -p cbr -e 512 -c 2 -a 0 -i 22 -k AGT
+ -t 15.408090912 -s 0 -d 4 -p cbr -e 532 -c 2 -a 0 -i 22 -k RTR 
- -t 15.408090912 -s 0 -d 4 -p cbr -e 532 -c 2 -a 0 -i 22 -k RTR
h -t 15.408090912 -s 0 -d 4 -p cbr -e 532 -c 2 -a 0 -i 22 -k RTR
+ -t 15.413621148 -s 4 -d 10 -p cbr -e 532 -c 2 -a 0 -i 22 -k RTR 
- -t 15.413621148 -s 4 -d 10 -p cbr -e 532 -c 2 -a 0 -i 22 -k RTR
h -t 15.413621148 -s 4 -d 10 -p cbr -e 532 -c 2 -a 0 -i 22 -k RTR
+ -t 15.419755148 -s 10 -d 16 -p cbr -e 532 -c 2 -a 0 -i 22 -k RTR 
- -t 15.419755148 -s 10 -d 16 -p cbr -e 532 -c 2 -a 0 -i 22 -k RTR
h -t 15.419755148 -s 10 -d 16 -p cbr -e 532 -c 2 -a 0 -i 22 -k RTR
r -t 15.425709148 -s 16 -d 16 -p cbr -e 512 -c 2 -a 0 -i 22 -k AGT
+ -t 15.455943613 -s 0 -d -1 -p cbr -e 512 -c 2 -a 0 -i 23 -k AGT 
- -t 15.455943613 -s 0 -d -1 -p cbr -e 512 -c 2 -a 0 -i 23 -k AGT
h -t 15.455943613 -s 0 -d -1 -p cbr -e 512 -c 2 -a 0 -i 23 -k AGT
+ -t 15.455943613 -s 0 -d 4 -p cbr -e 532 -c 2 -a 0 -i 23 -k RTR 
- -t 15.455943613 -s 0 -d 4 -p cbr -e 532 -c 2 -a 0 -i 23 -k RTR
h -t 15.455943613 -s 0 -d 4 -p cbr -e 532 -c 2 -a 0 -i 23 -k RTR
+ -t 15.461813849 -s 4 -d 10 -p cbr -e 532 -c 2 -a 0 -i 23 -k RTR 
- -t 15.461813849 -s 4 -d 10 -p cbr -e 532 -c 2 -a 0 -i 23 -k RTR
h -t 15.461813849 -s 4 -d 10 -p cbr -e 532 -c 2 -a 0 -i 23 -k RTR
+ -t 15.468007849 -s 10 -d 16 -p cbr -e 532 -c 2 -a 0 -i 23 -k RTR 
- -t 15.468007849 -s 10 -d 16 -p cbr -e 532 -c 2 -a 0 -i 23 -k RTR
h -t 15.468007849 -s 10 -d 16 -p cbr -e 532 -c 2 -a 0 -i 23 -k RTR
r -t 15.473841849 -s 16 -d 16 -p cbr -e 512 -c 2 -a 0 -i 23 -k AGT
+ -t 15.505218357 -s 0 -d -1 -p cbr -e 512 -c 2 -a 0 -i 24 -k AGT 
- -t 15.505218357 -s 0 -d -1 -p cbr -e 512 -c 2 -a 0 -i 24 -k AGT
h -t 15.505218357 -s 0 -d -1 -p cbr -e 512 -c 2 -a 0 -i 24 -k AGT
+ -t 15.505218357 -s 0 -d 4 -p cbr -e 532 -c 2 -a 0 -i 24 -k RTR 
- -t 15.505218357 -s 0 -d 4 -p cbr -e 532 -c 2 -a 0 -i 24 -k RTR
h -t 15.505218357 -s 0 -d 4 -p cbr -e 532 -c 2 -a 0 -i 24 -k RTR
+ -t 15.511168593 -s 4 -d 10 -p cbr -e 532 -c 2 -a 0 -i 24 -k RTR 
- -t 15.511168593 -s 4 -d 10 -p cbr -e 532 -c 2 -a 0 -i 24 -k RTR
h -t 15.511168593 -s 4 -d 10 -p cbr -e 532 -c 2 -a 0 -i 24 -k RTR
+ -t 15.517402593 -s 10 -d 16 -p cbr -e 532 -c 2 -a 0 -i 24 -k RTR 
- -t 15.517402593 -s 10 -d 16 -p cbr -e 532 -c 2 -a 0 -i 24 -k RTR
h -t 15.517402593 -s 10 -d 16 -p cbr -e 532 -c 2 -a 0 -i 24 -k RTR
r -t 15.523476593 -s 16 -d 16 -p cbr -e 512 -c 2 -a 0 -i 24 -k AGT
+ -t 15.552997764 -s 0 -d -1 -p cbr -e 512 -c 2 -a 0 -i 25 -k AGT 
- -t 15.552997764 -s 0 -d -1 -p cbr -e 512 -c 2 -a 0 -i 25 -k AGT
h -t 15.552997764 -s 0 -d -1 -p cbr -e 512 -c 2 -a 0 -i 25 -k AGT
+ -t 15.552997764 -s 0 -d 4 -p cbr -e 532 -c 2 -a 0 -i 25 -k RTR 
- -t 15.552997764 -s 0 -d 4 -p cbr -e 532 -c 2 -a 0 -i 25 -k RTR
h -t 15.552997764 -s 0 -d 4 -p cbr -e 532 -c 2 -a 0 -i 25 -k RTR
+ -t 15.558828000 -s 4 -d 10 -p cbr -e 532 -c 2 -a 0 -i 25 -k RTR 
- -t 15.558828000 -s 4 -d 10 -p cbr -e 532 -c 2 -a 0 -i 25 -k RTR
h -t 15.558828000 -s 4 -d 10 -p cbr -e 532 -c 2 -a 0 -i 25 -k RTR
+ -t 15.564622000 -s 10 -d 16 -p cbr -e 532 -c 2 -a 0 -i 25 -k RTR 
- -t 15.564622000 -s 10 -d 16 -p cbr -e 532 -c 2 -a 0 -i 25 -k RTR
h -t 15.564622000 -s 10 -d 16 -p cbr -e 532 -c 2 -a 0 -i 25 -k RTR
r -t 15.570936000 -s 16 -d 16 -p cbr -e 512 -c 2 -a 0 -i 25 -k AGT
+ -t 15.604714918 -s 0 -d -1 -p cbr -e 512 -c 2 -a 0 -i 26 -k AGT 
- -t 15.604714918 -s 0 -d -1 -p cbr -e 512 -c 2 -a 0 -i 26 -k AGT
h -t 15.604714918 -s 0 -d -1 -p cbr -e 512 -c 2 -a 0 -i 26 -k AGT
+ -t 15.604714918 -s 0 -d 4 -p cbr -e 532 -c 2 -a 0 -i 26 -k RTR 
- -t 15.604714918 -s 0 -d 4 -p cbr -e 532 -c 2 -a 0 -i 26 -k RTR
h -t 15.604714918 -s 0 -d 4 -p cbr -e 532 -c 2 -a 0 -i 26 -k RTR
+ -t 15.610445154 -s 4 -d 10 -p cbr -e 532 -c 2 -a 0 -i 26 -k RTR 
- -t 15.610445154 -s 4 -d 10 -p cbr -e 532 -c 2 -a 0 -i 26 -k RTR
h -t 15.610445154 -s 4 -d 10 -p cbr -e 532 -c 2 -a 0 -i 26 -k RTR
+ -t 15.616499154 -s 10 -d 16 -p cbr -e 532 -c 2 -a 0 -i 26 -k RTR 
- -t 15.616499154 -s 10 -d 16 -p cbr -e 532 -c 2 -a 0 -i 26 -k RTR
h -t 15.616499154 -s 10 -d 16 -p cbr -e 532 -c 2 -a 0 -i 26 -k RTR
r -t 15.622813154 -s 16 -d 16 -p cbr -e 512 -c 2 -a 0 -i 26 -k AGT
+ -t 15.662967071 -s 0 -d -1 -p cbr -e 512 -c 2 -a 0 -i 27 -k AGT 
- -t 15.662967071 -s 0 -d -1 -p cbr -e 512 -c 2 -a 0 -i 27 -k AGT
h -t 15.662967071 -s 0 -d -1 -p cbr -e 512 -c 2 -a 0 -i 27 -k AGT
+ -t 15.662967071 -s 0 -d 4 -p cbr -e 532 -c 2 -a 0 -i 27 -k RTR 
- -t 15.662967071 -s 0 -d 4 -p cbr -e 532 -c 2 -a 0 -i 27 -k RTR
h -t 15.662967071 -s 0 -d 4 -p cbr -e 532 -c 2 -a 0 -i 27 -k RTR
+ -t 15.669017307 -s 4 -d 10 -p cbr -e 532 -c 2 -a 0 -i 27 -k RTR 
- -t 15.669017307 -s 4 -d 10 -p cbr -e 532 -c 2 -a 0 -i 27 -k RTR
h -t 15.669017307 -s 4 -d 10 -p cbr -e 532 -c 2 -a 0 -i 27 -k RTR
+ -t 15.674991307 -s 10 -d 16 -p cbr -e 532 -c 2 -a 0 -i 27 -k RTR 
- -t 15.674991307 -s 10 -d 16 -p cbr -e 532 -c 2 -a 0 -i 27 -k RTR
h -t 15.674991307 -s 10 -d 16 -p cbr -e 532 -c 2 -a 0 -i 27 -k RTR
r -t 15.680985307 -s 16 -d 16 -p cbr -e 512 -c 2 -a 0 -i 27 -k AGT
+ -t 15.736209980 -s 0 -d -1 -p cbr -e 512 -c 2 -a 0 -i 28 -k AGT 
- -t 15.736209980 -s 0 -d -1 -p cbr -e 512 -c 2 -a 0 -i 28 -k AGT
h -t 15.736209980 -s 0 -d -1 -p cbr -e 512 -c 2 -a 0 -i 28 -k AGT
+ -t 15.736209980 -s 0 -d 4 -p cbr -e 532 -c 2 -a 0 -i 28 -k RTR 
- -t 15.736209980 -s 0 -d 4 -p cbr -e 532 -c 2 -a 0 -i 28 -k RTR
h -t 15.736209980 -s 0 -d 4 -p cbr -e 532 -c 2 -a 0 -i 28 -k RTR
+ -t 15.741780216 -s 4 -d 10 -p cbr -e 532 -c 2 -a 0 -i 28 -k RTR 
- -t 15.741780216 -s 4 -d 10 -p cbr -e 532 -c 2 -a 0 -i 28 -k RTR
h -t 15.741780216 -s 4 -d 10 -p cbr -e 532 -c 2 -a 0 -i 28 -k RTR
+ -t 15.748034216 -s 10 -d 16 -p cbr -e 532 -c 2 -a 0 -i 28 -k RTR 
- -t 15.748034216 -s 10 -d 16 -p cbr -e 532 -c 2 -a 0 -i 28 -k RTR
h -t 15.748034216 -s 10 -d 16 -p cbr -e 532 -c 2 -a 0 -i 28 -k RTR
r -t 15.754128216 -s 16 -d 16 -p cbr -e 512 -c 2 -a 0 -i 28 -k AGT
+ -t 15.797339091 -s 0 -d -1 -p cbr -e 512 -c 2 -a 0 -i 29 -k AGT 
- -t 15.797339091 -s 0 -d -1 -p cbr -e 512 -c 2 -a 0 -i 29 -k AGT
h -t 15.797339091 -s 0 -d -1 -p cbr -e 512 -c 2 -a 0 -i 29 -k AGT
+ -t 15.797339091 -s 0 -d 4 -p cbr -e 532 -c 2 -a 0 -i 29 -k RTR 
- -t 15.797339091 -s 0 -d 4 -p cbr -e 532 -c 2 -a 0 -i 29 -k RTR
h -t 15.797339091 -s 0 -d 4 -p cbr -e 532 -c 2 -a 0 -i 29 -k RTR
+ -t 15.802889327 -s 4 -d 10 -p cbr -e 532 -c 2 -a 0 -i 29 -k RTR 
- -t 15.802889327 -s 4 -d 10 -p cbr -e 532 -c 2 -a 0 -i 29 -k RTR
h -t 15.802889327 -s 4 -d 10 -p cbr -e 532 -c 2 -a 0 -i 29 -k RTR
+ -t 15.808783327 -s 10 -d 16 -p cbr -e 532 -c 2 -a 0 -i 29 -k RTR 
- -t 15.808783327 -s 10 -d 16 -p cbr -e 532 -c 2 -a 0 -i 29 -k RTR
h -t 15.808783327 -s 10 -d 16 -p cbr -e 532 -c 2 -a 0 -i 29 -k RTR
r -t 15.814677327 -s 16 -d 16 -p cbr -e 512 -c 2 -a 0 -i 29 -k AGT
+ -t 15.835125083 -s 0 -d -1 -p cbr -e 512 -c 2 -a 0 -i 30 -k AGT 
- -t 15.835125083 -s 0 -d -1 -p cbr -e 512 -c 2 -a 0 -i 30 -k AGT
h -t 15.835125083 -s 0 -d -1 -p cbr -e 512 -c 2 -a 0 -i 30 -k AGT
+ -t 15.835125083 -s 0 -d 4 -p cbr -e 532 -c 2 -a 0 -i 30 -k RTR 
- -t 15.835125083 -s 0 -d 4 -p cbr -e 532 -c 2 -a 0 -i 30 -k RTR
h -t 15.835125083 -s 0 -d 4 -p cbr -e 532 -c 2 -a 0 -i 30 -k RTR
+ -t 15.840735319 -s 4 -d 10 -p cbr -e 532 -c 2 -a 0 -i 30 -k RTR 
- -t 15.840735319 -s 4 -d 10 -p cbr -e 532 -c 2 -a 0 -i 30 -k RTR
h -t 15.840735319 -s 4 -d 10 -p cbr -e 532 -c 2 -a 0 -i 30 -k RTR
+ -t 15.846929319 -s 10 -d 16 -p cbr -e 532 -c 2 -a 0 -i 30 -k RTR 
- -t 15.846929319 -s 10 -d 16 -p cbr -e 532 -c 2 -a 0 -i 30 -k RTR
h -t 15.846929319 -s 10 -d 16 -p cbr -e 532 -c 2 -a 0 -i 30 -k RTR
r -t 15.853103319 -s 16 -d 16 -p cbr -e 512 -c 2 -a 0 -i 30 -k AGT
+ -t 15.879499351 -s 0 -d -1 -p cbr -e 512 -c 2 -a 0 -i 31 -k AGT 
- -t 15.879499351 -s 0 -d -1 -p cbr -e 512 -c 2 -a 0 -i 31 -k AGT
h -t 15.879499351 -s 0 -d -1 -p cbr -e 512 -c 2 -a 0 -i 31 -k AGT
+ -t 15.879499351 -s 0 -d 4 -p cbr -e 532 -c 2 -a 0 -i 31 -k RTR 
- -t 15.879499351 -s 0 -d 4 -p cbr -e 532 -c 2 -a 0 -i 31 -k RTR
h -t 15.879499351 -s 0 -d 4 -p cbr -e 532 -c 2 -a 0 -i 31 -k RTR
+ -t 15.885529587 -s 4 -d 10 -p cbr -e 532 -c 2 -a 0 -i 31 -k RTR 
- -t 15.885529587 -s 4 -d 10 -p cbr -e 532 -c 2 -a 0 -i 31 -k RTR
h -t 15.885529587 -s 4 -d 10 -p cbr -e 532 -c 2 -a 0 -i 31 -k RTR
+ -t 15.891463587 -s 10 -d 16 -p cbr -e 532 -c 2 -a 0 -i 31 -k RTR 
- -t 15.891463587 -s 10 -d 16 -p cbr -e 532 -c 2 -a 0 -i 31 -k RTR
h -t 15.891463587 -s 10 -d 16 -p cbr -e 532 -c 2 -a 0 -i 31 -k RTR
r -t 15.897317587 -s 16 -d 16 -p cbr -e 512 -c 2 -a 0 -i 31 -k AGT
+ -t 15.944175251 -s 0 -d -1 -p cbr -e 512 -c 2 -a 0 -i 32 -k AGT 
- -t 15.944175251 -s 0 -d -1 -p cbr -e 512 -c 2 -a 0 -i 32 -k AGT
h -t 15.944175251 -s 0 -d -1 -p cbr -e 512 -c 2 -a 0 -i 32 -k AGT
+ -t 15.944175251 -s 0 -d 4 -p cbr -e 532 -c 2 -a 0 -i 32 -k RTR 
- -t 15.944175251 -s 0 -d 4 -p cbr -e 532 -c 2 -a 0 -i 32 -k RTR
h -t 15.944175251 -s 0 -d 4 -p cbr -e 532 -c 2 -a 0 -i 32 -k RTR
+ -t 15.949845487 -s 4 -d 10 -p cbr -e 532 -c 2 -a 0 -i 32 -k RTR 
- -t 15.949845487 -s 4 -d 10 -p cbr -e 532 -c 2 -a 0 -i 32 -k RTR
h -t 15.949845487 -s 4 -d 10 -p cbr -e 532 -c 2 -a 0 -i 32 -k RTR
+ -t 15.955659487 -s 10 -d 16 -p cbr -e 532 -c 2 -a 0 -i 32 -k RTR 
- -t 15.955659487 -s 10 -d 16 -p cbr -e 532 -c 2 -a 0 -i 32 -k RTR
h -t 15.955659487 -s 10 -d 16 -p cbr -e 532 -c 2 -a 0 -i 32 -k RTR
r -t 15.961933487 -s 16 -d 16 -p cbr -e 512 -c 2 -a 0 -i 32 -k AGT
+ -t 16.013137157 -s 0 -d -1 -p cbr -e 512 -c 2 -a 0 -i 33 -k AGT 
- -t 16.013137157 -s 0 -d -1 -p cbr -e 512 -c 2 -a 0 -i 33 -k AGT
h -t 16.013137157 -s 0 -d -1 -p cbr -e 512 -c 2 -a 0 -i 33 -k AGT
+ -t 16.013137157 -s 0 -d 4 -p cbr -e 532 -c 2 -a 0 -i 33 -k RTR 
- -t 16.013137157 -s 0 -d 4 -p cbr -e 532 -c 2 -a 0 -i 33 -k RTR
h -t 16.013137157 -s 0 -d 4 -p cbr -e 532 -c 2 -a 0 -i 33 -k RTR
+ -t 16.018787394 -s 4 -d 10 -p cbr -e 532 -c 2 -a 0 -i 33 -k RTR 
- -t 16.018787394 -s 4 -d 10 -p cbr -e 532 -c 2 -a 0 -i 33 -k RTR
h -t 16.018787394 -s 4 -d 10 -p cbr -e 532 -c 2 -a 0 -i 33 -k RTR
+ -t 16.025061394 -s 10 -d 16 -p cbr -e 532 -c 2 -a 0 -i 33 -k RTR 
- -t 16.025061394 -s 10 -d 16 -p cbr -e 532 -c 2 -a 0 -i 33 -k RTR
h -t 16.025061394 -s 10 -d 16 -p cbr -e 532 -c 2 -a 0 -i 33 -k RTR
r -t 16.031255394 -s 16 -d 16 -p cbr -e 512 -c 2 -a 0 -i 33 -k AGT
+ -t 16.076781426 -s 0 -d -1 -p cbr -e 512 -c 2 -a 0 -i 34 -k AGT 
- -t 16.076781426 -s 0 -d -1 -p cbr -e 512 -c 2 -a 0 -i 34 -k AGT
h -t 16.076781426 -s 0 -d -1 -p cbr -e 512 -c 2 -a 0 -i 34 -k AGT
+ -t 16.076781426 -s 0 -d 4 -p cbr -e 532 -c 2 -a 0 -i 34 -k RTR 
- -t 16.076781426 -s 0 -d 4 -p cbr -e 532 -c 2 -a 0 -i 34 -k RTR
h -t 16.076781426 -s 0 -d 4 -p cbr -e 532 -c 2 -a 0 -i 34 -k RTR
+ -t 16.082651662 -s 4 -d 10 -p cbr -e 532 -c 2 -a 0 -i 34 -k RTR 
- -t 16.082651662 -s 4 -d 10 -p cbr -e 532 -c 2 -a 0 -i 34 -k RTR
h -t 16.082651662 -s 4 -d 10 -p cbr -e 532 -c 2 -a 0 -i 34 -k RTR
+ -t 16.088525662 -s 10 -d 16 -p cbr -e 532 -c 2 -a 0 -i 34 -k RTR 
- -t 16.088525662 -s 10 -d 16 -p cbr -e 532 -c 2 -a 0 -i 34 -k RTR
h -t 16.088525662 -s 10 -d 16 -p cbr -e 532 -c 2 -a 0 -i 34 -k RTR
r -t 16.094379662 -s 16 -d 16 -p cbr -e 512 -c 2 -a 0 -i 34 -k AGT
+ -t 16.149854655 -s 0 -d -1 -p cbr -e 512 -c 2 -a 0 -i 35 -k AGT 
- -t 16.149854655 -s 0 -d -1 -p cbr -e 512 -c 2 -a 0 -i 35 -k AGT
h -t 16.149854655 -s 0 -d -1 -p cbr -e 512 -c 2 -a 0 -i 35 -k AGT
+ -t 16.149854655 -s 0 -d 4 -p cbr -e 532 -c 2 -a 0 -i 35 -k RTR 
- -t 16.149854655 -s 0 -d 4 -p cbr -e 532 -c 2 -a 0 -i 35 -k RTR
h -t 16.149854655 -s 0 -d 4 -p cbr -e 532 -c 2 -a 0 -i 35 -k RTR
+ -t 16.155704891 -s 4 -d 10 -p cbr -e 532 -c 2 -a 0 -i 35 -k RTR 
- -t 16.155704891 -s 4 -d 10 -p cbr -e 532 -c 2 -a 0 -i 35 -k RTR
h -t 16.155704891 -s 4 -d 10 -p cbr -e 532 -c 2 -a 0 -i 35 -k RTR
+ -t 16.161538891 -s 10 -d 16 -p cbr -e 532 -c 2 -a 0 -i 35 -k RTR 
- -t 16.161538891 -s 10 -d 16 -p cbr -e 532 -c 2 -a 0 -i 35 -k RTR
h -t 16.161538891 -s 10 -d 16 -p cbr -e 532 -c 2 -a 0 -i 35 -k RTR
r -t 16.167272891 -s 16 -d 16 -p cbr -e 512 -c 2 -a 0 -i 35 -k AGT
+ -t 16.186000681 -s 0 -d -1 -p cbr -e 512 -c 2 -a 0 -i 36 -k AGT 
- -t 16.186000681 -s 0 -d -1 -p cbr -e 512 -c 2 -a 0 -i 36 -k AGT
h -t 16.186000681 -s 0 -d -1 -p cbr -e 512 -c 2 -a 0 -i 36 -k AGT
+ -t 16.186000681 -s 0 -d 4 -p cbr -e 532 -c 2 -a 0 -i 36 -k RTR 
- -t 16.186000681 -s 0 -d 4 -p cbr -e 532 -c 2 -a 0 -i 36 -k RTR
h -t 16.186000681 -s 0 -d 4 -p cbr -e 532 -c 2 -a 0 -i 36 -k RTR
+ -t 16.191470917 -s 4 -d 10 -p cbr -e 532 -c 2 -a 0 -i 36 -k RTR 
- -t 16.191470917 -s 4 -d 10 -p cbr -e 532 -c 2 -a 0 -i 36 -k RTR
h -t 16.191470917 -s 4 -d 10 -p cbr -e 532 -c 2 -a 0 -i 36 -k RTR
+ -t 16.197624917 -s 10 -d 16 -p cbr -e 532 -c 2 -a 0 -i 36 -k RTR 
- -t 16.197624917 -s 10 -d 16 -p cbr -e 532 -c 2 -a 0 -i 36 -k RTR
h -t 16.197624917 -s 10 -d 16 -p cbr -e 532 -c 2 -a 0 -i 36 -k RTR
r -t 16.203678917 -s 16 -d 16 -p cbr -e 512 -c 2 -a 0 -i 36 -k AGT
+ -t 16.233463879 -s 0 -d -1 -p cbr -e 512 -c 2 -a 0 -i 37 -k AGT 
- -t 16.233463879 -s 0 -d -1 -p cbr -e 512 -c 2 -a 0 -i 37 -k AGT