n -t * -s 0  -x 100 -y 200 -Z 0 -z 30  -v circle -c black
n -t * -s 1  -x 200 -y 200 -Z 0 -z 30  -v circle -c black
n -t * -s 2  -x 300 -y 200 -Z 0 -z 30  -v circle -c black
n -t * -s 3  -x 400 -y 200 -Z 0 -z 30  -v circle -c black
n -t * -s 4  -x 500 -y 200 -Z 0 -z 30  -v circle -c black
n -t * -s 5  -x 100 -y 300 -Z 0 -z 30  -v circle -c black
n -t * -s 6  -x 200 -y 300 -Z 0 -z 30  -v circle -c black
n -t * -s 7  -x 300 -y 300 -Z 0 -z 30  -v circle -c black
n -t * -s 8  -x 400 -y 300 -Z 0 -z 30  -v circle -c black
n -t * -s 9  -x 500 -y 300 -Z 0 -z 30  -v circle -c black
n -t * -s 10  -x 100 -y 400 -Z 0 -z 30  -v circle -c black
n -t * -s 11  -x 200 -y 400 -Z 0 -z 30  -v circle -c black
n -t * -s 12  -x 300 -y 400 -Z 0 -z 30  -v circle -c black
n -t * -s 13  -x 400 -y 400 -Z 0 -z 30  -v circle -c black
n -t * -s 14  -x 500 -y 400 -Z 0 -z 30  -v circle -c black
n -t * -s 15  -x 100 -y 500 -Z 0 -z 30  -v circle -c black
n -t * -s 16  -x 200 -y 500 -Z 0 -z 30  -v circle -c black
n -t * -s 17  -x 300 -y 500 -Z 0 -z 30  -v circle -c black
n -t * -s 18  -x 400 -y 500 -Z 0 -z 30  -v circle -c black
n -t * -s 19  -x 500 -y 500 -Z 0 -z 30  -v circle -c black
V -t * -v 1.0a5 -a 0
W -t * -x 500 -y 500
A -t * -n 1 -p 0 -o 0xffffffff -c 31 -a 1
A -t * -h 1 -m 2147483647 -s 0
+ -t 15.000000000 -s 0 -d -1 -p cbr -e 512 -c 2 -a 0 -i 0 -k AGT 
- -t 15.000000000 -s 0 -d -1 -p cbr -e 512 -c 2 -a 0 -i 0 -k AGT
h -t 15.000000000 -s 0 -d -1 -p cbr -e 512 -c 2 -a 0 -i 0 -k AGT
+ -t 15.009488615 -s 0 -d -1 -p DSR -e 32 -c 2 -a 0 -i 1 -k RTR 
- -t 15.009488615 -s 0 -d -1 -p DSR -e 32 -c 2 -a 0 -i 1 -k RTR
h -t 15.009488615 -s 0 -d -1 -p DSR -e 32 -c 2 -a 0 -i 1 -k RTR
+ -t 15.026033893 -s 0 -d -1 -p cbr -e 512 -c 2 -a 0 -i 2 -k AGT 
- -t 15.026033893 -s 0 -d -1 -p cbr -e 512 -c 2 -a 0 -i 2 -k AGT
h -t 15.026033893 -s 0 -d -1 -p cbr -e 512 -c 2 -a 0 -i 2 -k AGT
+ -t 15.039006993 -s 0 -d -1 -p DSR -e 32 -c 2 -a 0 -i 4 -k RTR 
- -t 15.039006993 -s 0 -d -1 -p DSR -e 32 -c 2 -a 0 -i 4 -k RTR
h -t 15.039006993 -s 0 -d -1 -p DSR -e 32 -c 2 -a 0 -i 4 -k RTR
+ -t 15.043455086 -s 6 -d -1 -p DSR -e 48 -c 2 -a 0 -i 4 -k RTR 
- -t 15.043455086 -s 6 -d -1 -p DSR -e 48 -c 2 -a 0 -i 4 -k RTR
h -t 15.043455086 -s 6 -d -1 -p DSR -e 48 -c 2 -a 0 -i 4 -k RTR
+ -t 15.044819058 -s 17 -d -1 -p DSR -e 68 -c 2 -a 0 -i 4 -k RTR 
- -t 15.044819058 -s 17 -d -1 -p DSR -e 68 -c 2 -a 0 -i 4 -k RTR
h -t 15.044819058 -s 17 -d -1 -p DSR -e 68 -c 2 -a 0 -i 4 -k RTR
+ -t 15.045815206 -s 12 -d -1 -p DSR -e 68 -c 2 -a 0 -i 4 -k RTR 
- -t 15.045815206 -s 12 -d -1 -p DSR -e 68 -c 2 -a 0 -i 4 -k RTR
h -t 15.045815206 -s 12 -d -1 -p DSR -e 68 -c 2 -a 0 -i 4 -k RTR
+ -t 15.046236540 -s 7 -d -1 -p DSR -e 48 -c 2 -a 0 -i 4 -k RTR 
- -t 15.046236540 -s 7 -d -1 -p DSR -e 48 -c 2 -a 0 -i 4 -k RTR
h -t 15.046236540 -s 7 -d -1 -p DSR -e 48 -c 2 -a 0 -i 4 -k RTR
+ -t 15.046343305 -s 2 -d -1 -p DSR -e 48 -c 2 -a 0 -i 4 -k RTR 
- -t 15.046343305 -s 2 -d -1 -p DSR -e 48 -c 2 -a 0 -i 4 -k RTR
h -t 15.046343305 -s 2 -d -1 -p DSR -e 48 -c 2 -a 0 -i 4 -k RTR
+ -t 15.048247873 -s 10 -d -1 -p DSR -e 48 -c 2 -a 0 -i 4 -k RTR 
- -t 15.048247873 -s 10 -d -1 -p DSR -e 48 -c 2 -a 0 -i 4 -k RTR
h -t 15.048247873 -s 10 -d -1 -p DSR -e 48 -c 2 -a 0 -i 4 -k RTR
+ -t 15.048465450 -s 5 -d -1 -p DSR -e 48 -c 2 -a 0 -i 4 -k RTR 
- -t 15.048465450 -s 5 -d -1 -p DSR -e 48 -c 2 -a 0 -i 4 -k RTR
h -t 15.048465450 -s 5 -d -1 -p DSR -e 48 -c 2 -a 0 -i 4 -k RTR
+ -t 15.048533149 -s 13 -d -1 -p DSR -e 68 -c 2 -a 0 -i 4 -k RTR 
- -t 15.048533149 -s 13 -d -1 -p DSR -e 68 -c 2 -a 0 -i 4 -k RTR
h -t 15.048533149 -s 13 -d -1 -p DSR -e 68 -c 2 -a 0 -i 4 -k RTR
+ -t 15.048552490 -s 1 -d -1 -p DSR -e 48 -c 2 -a 0 -i 4 -k RTR 
- -t 15.048552490 -s 1 -d -1 -p DSR -e 48 -c 2 -a 0 -i 4 -k RTR
h -t 15.048552490 -s 1 -d -1 -p DSR -e 48 -c 2 -a 0 -i 4 -k RTR
+ -t 15.048716101 -s 4 -d -1 -p DSR -e 68 -c 2 -a 0 -i 4 -k RTR 
- -t 15.048716101 -s 4 -d -1 -p DSR -e 68 -c 2 -a 0 -i 4 -k RTR
h -t 15.048716101 -s 4 -d -1 -p DSR -e 68 -c 2 -a 0 -i 4 -k RTR
+ -t 15.048924141 -s 15 -d -1 -p DSR -e 68 -c 2 -a 0 -i 4 -k RTR 
- -t 15.048924141 -s 15 -d -1 -p DSR -e 68 -c 2 -a 0 -i 4 -k RTR
h -t 15.048924141 -s 15 -d -1 -p DSR -e 68 -c 2 -a 0 -i 4 -k RTR
+ -t 15.048954372 -s 11 -d -1 -p DSR -e 48 -c 2 -a 0 -i 4 -k RTR 
- -t 15.048954372 -s 11 -d -1 -p DSR -e 48 -c 2 -a 0 -i 4 -k RTR
h -t 15.048954372 -s 11 -d -1 -p DSR -e 48 -c 2 -a 0 -i 4 -k RTR
+ -t 15.049453930 -s 3 -d -1 -p DSR -e 68 -c 2 -a 0 -i 4 -k RTR 
- -t 15.049453930 -s 3 -d -1 -p DSR -e 68 -c 2 -a 0 -i 4 -k RTR
h -t 15.049453930 -s 3 -d -1 -p DSR -e 68 -c 2 -a 0 -i 4 -k RTR
+ -t 15.052642369 -s 18 -d 17 -p DSR -e 60 -c 2 -a 0 -i 6 -k RTR 
- -t 15.052642369 -s 18 -d 17 -p DSR -e 60 -c 2 -a 0 -i 6 -k RTR
h -t 15.052642369 -s 18 -d 17 -p DSR -e 60 -c 2 -a 0 -i 6 -k RTR
+ -t 15.052939416 -s 16 -d -1 -p DSR -e 68 -c 2 -a 0 -i 4 -k RTR 
- -t 15.052939416 -s 16 -d -1 -p DSR -e 68 -c 2 -a 0 -i 4 -k RTR
h -t 15.052939416 -s 16 -d -1 -p DSR -e 68 -c 2 -a 0 -i 4 -k RTR
+ -t 15.054275041 -s 8 -d -1 -p DSR -e 68 -c 2 -a 0 -i 4 -k RTR 
- -t 15.054275041 -s 8 -d -1 -p DSR -e 68 -c 2 -a 0 -i 4 -k RTR
h -t 15.054275041 -s 8 -d -1 -p DSR -e 68 -c 2 -a 0 -i 4 -k RTR
+ -t 15.054847206 -s 14 -d -1 -p DSR -e 92 -c 2 -a 0 -i 4 -k RTR 
- -t 15.054847206 -s 14 -d -1 -p DSR -e 92 -c 2 -a 0 -i 4 -k RTR
h -t 15.054847206 -s 14 -d -1 -p DSR -e 92 -c 2 -a 0 -i 4 -k RTR
+ -t 15.054990959 -s 18 -d 12 -p DSR -e 60 -c 2 -a 0 -i 7 -k RTR 
- -t 15.054990959 -s 18 -d 12 -p DSR -e 60 -c 2 -a 0 -i 7 -k RTR
h -t 15.054990959 -s 18 -d 12 -p DSR -e 60 -c 2 -a 0 -i 7 -k RTR
+ -t 15.055552356 -s 18 -d 11 -p DSR -e 52 -c 2 -a 0 -i 10 -k RTR 
- -t 15.055552356 -s 18 -d 11 -p DSR -e 52 -c 2 -a 0 -i 10 -k RTR
h -t 15.055552356 -s 18 -d 11 -p DSR -e 52 -c 2 -a 0 -i 10 -k RTR
+ -t 15.055782297 -s 19 -d -1 -p DSR -e 92 -c 2 -a 0 -i 4 -k RTR 
- -t 15.055782297 -s 19 -d -1 -p DSR -e 92 -c 2 -a 0 -i 4 -k RTR
h -t 15.055782297 -s 19 -d -1 -p DSR -e 92 -c 2 -a 0 -i 4 -k RTR
+ -t 15.056325472 -s 9 -d -1 -p DSR -e 92 -c 2 -a 0 -i 4 -k RTR 
- -t 15.056325472 -s 9 -d -1 -p DSR -e 92 -c 2 -a 0 -i 4 -k RTR
h -t 15.056325472 -s 9 -d -1 -p DSR -e 92 -c 2 -a 0 -i 4 -k RTR
+ -t 15.057012768 -s 18 -d 13 -p DSR -e 60 -c 2 -a 0 -i 9 -k RTR 
- -t 15.057012768 -s 18 -d 13 -p DSR -e 60 -c 2 -a 0 -i 9 -k RTR
h -t 15.057012768 -s 18 -d 13 -p DSR -e 60 -c 2 -a 0 -i 9 -k RTR
+ -t 15.057250897 -s 18 -d 7 -p DSR -e 52 -c 2 -a 0 -i 8 -k RTR 
- -t 15.057250897 -s 18 -d 7 -p DSR -e 52 -c 2 -a 0 -i 8 -k RTR
h -t 15.057250897 -s 18 -d 7 -p DSR -e 52 -c 2 -a 0 -i 8 -k RTR
+ -t 15.062344418 -s 18 -d 16 -p DSR -e 60 -c 2 -a 0 -i 11 -k RTR 
- -t 15.062344418 -s 18 -d 16 -p DSR -e 60 -c 2 -a 0 -i 11 -k RTR
h -t 15.062344418 -s 18 -d 16 -p DSR -e 60 -c 2 -a 0 -i 11 -k RTR
+ -t 15.062443092 -s 0 -d -1 -p cbr -e 512 -c 2 -a 0 -i 14 -k AGT 
- -t 15.062443092 -s 0 -d -1 -p cbr -e 512 -c 2 -a 0 -i 14 -k AGT
h -t 15.062443092 -s 0 -d -1 -p cbr -e 512 -c 2 -a 0 -i 14 -k AGT
+ -t 15.063237147 -s 18 -d 8 -p DSR -e 60 -c 2 -a 0 -i 12 -k RTR 
- -t 15.063237147 -s 18 -d 8 -p DSR -e 60 -c 2 -a 0 -i 12 -k RTR
h -t 15.063237147 -s 18 -d 8 -p DSR -e 60 -c 2 -a 0 -i 12 -k RTR
+ -t 15.064504061 -s 17 -d 6 -p DSR -e 60 -c 2 -a 0 -i 6 -k RTR 
- -t 15.064504061 -s 17 -d 6 -p DSR -e 60 -c 2 -a 0 -i 6 -k RTR
h -t 15.064504061 -s 17 -d 6 -p DSR -e 60 -c 2 -a 0 -i 6 -k RTR
+ -t 15.064585207 -s 18 -d 14 -p DSR -e 68 -c 2 -a 0 -i 13 -k RTR 
- -t 15.064585207 -s 18 -d 14 -p DSR -e 68 -c 2 -a 0 -i 13 -k RTR
h -t 15.064585207 -s 18 -d 14 -p DSR -e 68 -c 2 -a 0 -i 13 -k RTR
+ -t 15.066502297 -s 6 -d 0 -p DSR -e 60 -c 2 -a 0 -i 6 -k RTR 
- -t 15.066502297 -s 6 -d 0 -p DSR -e 60 -c 2 -a 0 -i 6 -k RTR
h -t 15.066502297 -s 6 -d 0 -p DSR -e 60 -c 2 -a 0 -i 6 -k RTR
+ -t 15.068289079 -s 18 -d 9 -p DSR -e 68 -c 2 -a 0 -i 16 -k RTR 
- -t 15.068289079 -s 18 -d 9 -p DSR -e 68 -c 2 -a 0 -i 16 -k RTR
h -t 15.068289079 -s 18 -d 9 -p DSR -e 68 -c 2 -a 0 -i 16 -k RTR
+ -t 15.070411246 -s 14 -d 17 -p DSR -e 68 -c 2 -a 0 -i 13 -k RTR 
- -t 15.070411246 -s 14 -d 17 -p DSR -e 68 -c 2 -a 0 -i 13 -k RTR
h -t 15.070411246 -s 14 -d 17 -p DSR -e 68 -c 2 -a 0 -i 13 -k RTR
+ -t 15.072553954 -s 9 -d 12 -p DSR -e 68 -c 2 -a 0 -i 16 -k RTR 
- -t 15.072553954 -s 9 -d 12 -p DSR -e 68 -c 2 -a 0 -i 16 -k RTR
h -t 15.072553954 -s 9 -d 12 -p DSR -e 68 -c 2 -a 0 -i 16 -k RTR
+ -t 15.074672699 -s 8 -d 6 -p DSR -e 60 -c 2 -a 0 -i 12 -k RTR 
- -t 15.074672699 -s 8 -d 6 -p DSR -e 60 -c 2 -a 0 -i 12 -k RTR
h -t 15.074672699 -s 8 -d 6 -p DSR -e 60 -c 2 -a 0 -i 12 -k RTR
+ -t 15.074793895 -s 18 -d 19 -p DSR -e 68 -c 2 -a 0 -i 17 -k RTR 
- -t 15.074793895 -s 18 -d 19 -p DSR -e 68 -c 2 -a 0 -i 17 -k RTR
h -t 15.074793895 -s 18 -d 19 -p DSR -e 68 -c 2 -a 0 -i 17 -k RTR
+ -t 15.076760390 -s 0 -d 6 -p cbr -e 556 -c 2 -a 0 -i 0 -k RTR 
- -t 15.076760390 -s 0 -d 6 -p cbr -e 556 -c 2 -a 0 -i 0 -k RTR
h -t 15.076760390 -s 0 -d 6 -p cbr -e 556 -c 2 -a 0 -i 0 -k RTR
+ -t 15.083005804 -s 6 -d 17 -p cbr -e 556 -c 2 -a 0 -i 0 -k RTR 
- -t 15.083005804 -s 6 -d 17 -p cbr -e 556 -c 2 -a 0 -i 0 -k RTR
h -t 15.083005804 -s 6 -d 17 -p cbr -e 556 -c 2 -a 0 -i 0 -k RTR
+ -t 15.089152040 -s 17 -d 18 -p cbr -e 556 -c 2 -a 0 -i 0 -k RTR 
- -t 15.089152040 -s 17 -d 18 -p cbr -e 556 -c 2 -a 0 -i 0 -k RTR
h -t 15.089152040 -s 17 -d 18 -p cbr -e 556 -c 2 -a 0 -i 0 -k RTR
+ -t 15.091150785 -s 6 -d 0 -p DSR -e 60 -c 2 -a 0 -i 12 -k RTR 
- -t 15.091150785 -s 6 -d 0 -p DSR -e 60 -c 2 -a 0 -i 12 -k RTR
h -t 15.091150785 -s 6 -d 0 -p DSR -e 60 -c 2 -a 0 -i 12 -k RTR
+ -t 15.095595810 -s 12 -d 6 -p DSR -e 68 -c 2 -a 0 -i 16 -k RTR 
- -t 15.095595810 -s 12 -d 6 -p DSR -e 68 -c 2 -a 0 -i 16 -k RTR
h -t 15.095595810 -s 12 -d 6 -p DSR -e 68 -c 2 -a 0 -i 16 -k RTR
+ -t 15.097658713 -s 17 -d 6 -p DSR -e 68 -c 2 -a 0 -i 13 -k RTR 
- -t 15.097658713 -s 17 -d 6 -p DSR -e 68 -c 2 -a 0 -i 13 -k RTR
h -t 15.097658713 -s 17 -d 6 -p DSR -e 68 -c 2 -a 0 -i 13 -k RTR
+ -t 15.099800046 -s 19 -d 17 -p DSR -e 68 -c 2 -a 0 -i 17 -k RTR 
- -t 15.099800046 -s 19 -d 17 -p DSR -e 68 -c 2 -a 0 -i 17 -k RTR
h -t 15.099800046 -s 19 -d 17 -p DSR -e 68 -c 2 -a 0 -i 17 -k RTR
+ -t 15.100371643 -s 0 -d -1 -p cbr -e 512 -c 2 -a 0 -i 21 -k AGT 
- -t 15.100371643 -s 0 -d -1 -p cbr -e 512 -c 2 -a 0 -i 21 -k AGT
h -t 15.100371643 -s 0 -d -1 -p cbr -e 512 -c 2 -a 0 -i 21 -k AGT
+ -t 15.100371643 -s 0 -d 6 -p cbr -e 532 -c 2 -a 0 -i 21 -k RTR 
- -t 15.100371643 -s 0 -d 6 -p cbr -e 532 -c 2 -a 0 -i 21 -k RTR
h -t 15.100371643 -s 0 -d 6 -p cbr -e 532 -c 2 -a 0 -i 21 -k RTR
+ -t 15.101862046 -s 17 -d 6 -p DSR -e 68 -c 2 -a 0 -i 17 -k RTR 
- -t 15.101862046 -s 17 -d 6 -p DSR -e 68 -c 2 -a 0 -i 17 -k RTR
h -t 15.101862046 -s 17 -d 6 -p DSR -e 68 -c 2 -a 0 -i 17 -k RTR
+ -t 15.103963794 -s 6 -d 0 -p DSR -e 68 -c 2 -a 0 -i 16 -k RTR 
- -t 15.103963794 -s 6 -d 0 -p DSR -e 68 -c 2 -a 0 -i 16 -k RTR
h -t 15.103963794 -s 6 -d 0 -p DSR -e 68 -c 2 -a 0 -i 16 -k RTR
+ -t 15.106760390 -s 0 -d 6 -p cbr -e 556 -c 2 -a 0 -i 2 -k RTR 
- -t 15.106760390 -s 0 -d 6 -p cbr -e 556 -c 2 -a 0 -i 2 -k RTR
h -t 15.106760390 -s 0 -d 6 -p cbr -e 556 -c 2 -a 0 -i 2 -k RTR
r -t 15.109929539 -s 18 -d 18 -p cbr -e 512 -c 2 -a 0 -i 0 -k AGT
+ -t 15.112092108 -s 6 -d 0 -p DSR -e 68 -c 2 -a 0 -i 17 -k RTR 
- -t 15.112092108 -s 6 -d 0 -p DSR -e 68 -c 2 -a 0 -i 17 -k RTR
h -t 15.112092108 -s 6 -d 0 -p DSR -e 68 -c 2 -a 0 -i 17 -k RTR
+ -t 15.117895979 -s 6 -d 17 -p cbr -e 532 -c 2 -a 0 -i 21 -k RTR 
- -t 15.117895979 -s 6 -d 17 -p cbr -e 532 -c 2 -a 0 -i 21 -k RTR
h -t 15.117895979 -s 6 -d 17 -p cbr -e 532 -c 2 -a 0 -i 21 -k RTR
+ -t 15.119968946 -s 6 -d 0 -p DSR -e 68 -c 2 -a 0 -i 13 -k RTR 
- -t 15.119968946 -s 6 -d 0 -p DSR -e 68 -c 2 -a 0 -i 13 -k RTR
h -t 15.119968946 -s 6 -d 0 -p DSR -e 68 -c 2 -a 0 -i 13 -k RTR
+ -t 15.126194177 -s 0 -d -1 -p cbr -e 512 -c 2 -a 0 -i 22 -k AGT 
- -t 15.126194177 -s 0 -d -1 -p cbr -e 512 -c 2 -a 0 -i 22 -k AGT
h -t 15.126194177 -s 0 -d -1 -p cbr -e 512 -c 2 -a 0 -i 22 -k AGT
+ -t 15.126194177 -s 0 -d 6 -p cbr -e 532 -c 2 -a 0 -i 22 -k RTR 
- -t 15.126194177 -s 0 -d 6 -p cbr -e 532 -c 2 -a 0 -i 22 -k RTR
h -t 15.126194177 -s 0 -d 6 -p cbr -e 532 -c 2 -a 0 -i 22 -k RTR
+ -t 15.128135774 -s 6 -d 17 -p cbr -e 556 -c 2 -a 0 -i 2 -k RTR 
- -t 15.128135774 -s 6 -d 17 -p cbr -e 556 -c 2 -a 0 -i 2 -k RTR
h -t 15.128135774 -s 6 -d 17 -p cbr -e 556 -c 2 -a 0 -i 2 -k RTR
+ -t 15.136390602 -s 6 -d 17 -p cbr -e 532 -c 2 -a 0 -i 22 -k RTR 
- -t 15.136390602 -s 6 -d 17 -p cbr -e 532 -c 2 -a 0 -i 22 -k RTR
h -t 15.136390602 -s 6 -d 17 -p cbr -e 532 -c 2 -a 0 -i 22 -k RTR
+ -t 15.136760390 -s 0 -d 6 -p cbr -e 556 -c 2 -a 0 -i 14 -k RTR 
- -t 15.136760390 -s 0 -d 6 -p cbr -e 556 -c 2 -a 0 -i 14 -k RTR
h -t 15.136760390 -s 0 -d 6 -p cbr -e 556 -c 2 -a 0 -i 14 -k RTR
+ -t 15.144797431 -s 6 -d 17 -p cbr -e 556 -c 2 -a 0 -i 14 -k RTR 
- -t 15.144797431 -s 6 -d 17 -p cbr -e 556 -c 2 -a 0 -i 14 -k RTR
h -t 15.144797431 -s 6 -d 17 -p cbr -e 556 -c 2 -a 0 -i 14 -k RTR
+ -t 15.150811667 -s 17 -d 18 -p cbr -e 532 -c 2 -a 0 -i 21 -k RTR 
- -t 15.150811667 -s 17 -d 18 -p cbr -e 532 -c 2 -a 0 -i 21 -k RTR
h -t 15.150811667 -s 17 -d 18 -p cbr -e 532 -c 2 -a 0 -i 21 -k RTR
+ -t 15.156898648 -s 17 -d 18 -p cbr -e 556 -c 2 -a 0 -i 2 -k RTR 
- -t 15.156898648 -s 17 -d 18 -p cbr -e 556 -c 2 -a 0 -i 2 -k RTR
h -t 15.156898648 -s 17 -d 18 -p cbr -e 556 -c 2 -a 0 -i 2 -k RTR
r -t 15.162711648 -s 18 -d 18 -p cbr -e 512 -c 2 -a 0 -i 21 -k AGT
+ -t 15.164749648 -s 16 -d 6 -p DSR -e 60 -c 2 -a 0 -i 11 -k RTR 
- -t 15.164749648 -s 16 -d 6 -p DSR -e 60 -c 2 -a 0 -i 11 -k RTR
h -t 15.164749648 -s 16 -d 6 -p DSR -e 60 -c 2 -a 0 -i 11 -k RTR
+ -t 15.166624551 -s 7 -d 0 -p DSR -e 52 -c 2 -a 0 -i 8 -k RTR 
- -t 15.166624551 -s 7 -d 0 -p DSR -e 52 -c 2 -a 0 -i 8 -k RTR
h -t 15.166624551 -s 7 -d 0 -p DSR -e 52 -c 2 -a 0 -i 8 -k RTR
+ -t 15.174333495 -s 17 -d 18 -p cbr -e 532 -c 2 -a 0 -i 22 -k RTR 
- -t 15.174333495 -s 17 -d 18 -p cbr -e 532 -c 2 -a 0 -i 22 -k RTR
h -t 15.174333495 -s 17 -d 18 -p cbr -e 532 -c 2 -a 0 -i 22 -k RTR
+ -t 15.180240476 -s 17 -d 18 -p cbr -e 556 -c 2 -a 0 -i 14 -k RTR 
- -t 15.180240476 -s 17 -d 18 -p cbr -e 556 -c 2 -a 0 -i 14 -k RTR
h -t 15.180240476 -s 17 -d 18 -p cbr -e 556 -c 2 -a 0 -i 14 -k RTR
r -t 15.186245476 -s 18 -d 18 -p cbr -e 512 -c 2 -a 0 -i 2 -k AGT
+ -t 15.188344143 -s 6 -d 0 -p DSR -e 60 -c 2 -a 0 -i 11 -k RTR 
- -t 15.188344143 -s 6 -d 0 -p DSR -e 60 -c 2 -a 0 -i 11 -k RTR
h -t 15.188344143 -s 6 -d 0 -p DSR -e 60 -c 2 -a 0 -i 11 -k RTR
r -t 15.194077888 -s 18 -d 18 -p cbr -e 512 -c 2 -a 0 -i 22 -k AGT
+ -t 15.196054888 -s 13 -d 6 -p DSR -e 60 -c 2 -a 0 -i 9 -k RTR 
- -t 15.196054888 -s 13 -d 6 -p DSR -e 60 -c 2 -a 0 -i 9 -k RTR
h -t 15.196054888 -s 13 -d 6 -p DSR -e 60 -c 2 -a 0 -i 9 -k RTR
+ -t 15.198129457 -s 11 -d 0 -p DSR -e 52 -c 2 -a 0 -i 10 -k RTR 
- -t 15.198129457 -s 11 -d 0 -p DSR -e 52 -c 2 -a 0 -i 10 -k RTR
h -t 15.198129457 -s 11 -d 0 -p DSR -e 52 -c 2 -a 0 -i 10 -k RTR
+ -t 15.198968984 -s 0 -d -1 -p cbr -e 512 -c 2 -a 0 -i 23 -k AGT 
- -t 15.198968984 -s 0 -d -1 -p cbr -e 512 -c 2 -a 0 -i 23 -k AGT
h -t 15.198968984 -s 0 -d -1 -p cbr -e 512 -c 2 -a 0 -i 23 -k AGT
+ -t 15.198968984 -s 0 -d 7 -p cbr -e 552 -c 2 -a 0 -i 23 -k RTR 
- -t 15.198968984 -s 0 -d 7 -p cbr -e 552 -c 2 -a 0 -i 23 -k RTR
h -t 15.198968984 -s 0 -d 7 -p cbr -e 552 -c 2 -a 0 -i 23 -k RTR
r -t 15.204094929 -s 18 -d 18 -p cbr -e 512 -c 2 -a 0 -i 14 -k AGT
+ -t 15.213233658 -s 7 -d 18 -p cbr -e 552 -c 2 -a 0 -i 23 -k RTR 
- -t 15.213233658 -s 7 -d 18 -p cbr -e 552 -c 2 -a 0 -i 23 -k RTR
h -t 15.213233658 -s 7 -d 18 -p cbr -e 552 -c 2 -a 0 -i 23 -k RTR
r -t 15.219187894 -s 18 -d 18 -p cbr -e 512 -c 2 -a 0 -i 23 -k AGT
+ -t 15.221385308 -s 12 -d 6 -p DSR -e 60 -c 2 -a 0 -i 7 -k RTR 
- -t 15.221385308 -s 12 -d 6 -p DSR -e 60 -c 2 -a 0 -i 7 -k RTR
h -t 15.221385308 -s 12 -d 6 -p DSR -e 60 -c 2 -a 0 -i 7 -k RTR
+ -t 15.223682722 -s 6 -d 0 -p DSR -e 60 -c 2 -a 0 -i 7 -k RTR 
- -t 15.223682722 -s 6 -d 0 -p DSR -e 60 -c 2 -a 0 -i 7 -k RTR
h -t 15.223682722 -s 6 -d 0 -p DSR -e 60 -c 2 -a 0 -i 7 -k RTR
+ -t 15.230198556 -s 6 -d 0 -p DSR -e 60 -c 2 -a 0 -i 9 -k RTR 
- -t 15.230198556 -s 6 -d 0 -p DSR -e 60 -c 2 -a 0 -i 9 -k RTR
h -t 15.230198556 -s 6 -d 0 -p DSR -e 60 -c 2 -a 0 -i 9 -k RTR
+ -t 15.235855684 -s 0 -d -1 -p cbr -e 512 -c 2 -a 0 -i 24 -k AGT 
- -t 15.235855684 -s 0 -d -1 -p cbr -e 512 -c 2 -a 0 -i 24 -k AGT
h -t 15.235855684 -s 0 -d -1 -p cbr -e 512 -c 2 -a 0 -i 24 -k AGT
+ -t 15.235855684 -s 0 -d 7 -p cbr -e 552 -c 2 -a 0 -i 24 -k RTR 
- -t 15.235855684 -s 0 -d 7 -p cbr -e 552 -c 2 -a 0 -i 24 -k RTR
h -t 15.235855684 -s 0 -d 7 -p cbr -e 552 -c 2 -a 0 -i 24 -k RTR
+ -t 15.241585920 -s 7 -d 18 -p cbr -e 552 -c 2 -a 0 -i 24 -k RTR 
- -t 15.241585920 -s 7 -d 18 -p cbr -e 552 -c 2 -a 0 -i 24 -k RTR
h -t 15.241585920 -s 7 -d 18 -p cbr -e 552 -c 2 -a 0 -i 24 -k RTR
r -t 15.247980156 -s 18 -d 18 -p cbr -e 512 -c 2 -a 0 -i 24 -k AGT
+ -t 15.261066567 -s 0 -d -1 -p cbr -e 512 -c 2 -a 0 -i 25 -k AGT 
- -t 15.261066567 -s 0 -d -1 -p cbr -e 512 -c 2 -a 0 -i 25 -k AGT
h -t 15.261066567 -s 0 -d -1 -p cbr -e 512 -c 2 -a 0 -i 25 -k AGT
+ -t 15.261066567 -s 0 -d 7 -p cbr -e 552 -c 2 -a 0 -i 25 -k RTR 
- -t 15.261066567 -s 0 -d 7 -p cbr -e 552 -c 2 -a 0 -i 25 -k RTR
h -t 15.261066567 -s 0 -d 7 -p cbr -e 552 -c 2 -a 0 -i 25 -k RTR
+ -t 15.267036803 -s 7 -d 18 -p cbr -e 552 -c 2 -a 0 -i 25 -k RTR 
- -t 15.267036803 -s 7 -d 18 -p cbr -e 552 -c 2 -a 0 -i 25 -k RTR
h -t 15.267036803 -s 7 -d 18 -p cbr -e 552 -c 2 -a 0 -i 25 -k RTR
r -t 15.273011039 -s 18 -d 18 -p cbr -e 512 -c 2 -a 0 -i 25 -k AGT
+ -t 15.335841294 -s 0 -d -1 -p cbr -e 512 -c 2 -a 0 -i 26 -k AGT 
- -t 15.335841294 -s 0 -d -1 -p cbr -e 512 -c 2 -a 0 -i 26 -k AGT
h -t 15.335841294 -s 0 -d -1 -p cbr -e 512 -c 2 -a 0 -i 26 -k AGT
+ -t 15.335841294 -s 0 -d 7 -p cbr -e 532 -c 2 -a 0 -i 26 -k RTR 
- -t 15.335841294 -s 0 -d 7 -p cbr -e 532 -c 2 -a 0 -i 26 -k RTR
h -t 15.335841294 -s 0 -d 7 -p cbr -e 532 -c 2 -a 0 -i 26 -k RTR
+ -t 15.341731530 -s 7 -d 18 -p cbr -e 532 -c 2 -a 0 -i 26 -k RTR 
- -t 15.341731530 -s 7 -d 18 -p cbr -e 532 -c 2 -a 0 -i 26 -k RTR
h -t 15.341731530 -s 7 -d 18 -p cbr -e 532 -c 2 -a 0 -i 26 -k RTR
r -t 15.347725766 -s 18 -d 18 -p cbr -e 512 -c 2 -a 0 -i 26 -k AGT
+ -t 15.375055736 -s 0 -d -1 -p cbr -e 512 -c 2 -a 0 -i 27 -k AGT 
- -t 15.375055736 -s 0 -d -1 -p cbr -e 512 -c 2 -a 0 -i 27 -k AGT
h -t 15.375055736 -s 0 -d -1 -p cbr -e 512 -c 2 -a 0 -i 27 -k AGT
+ -t 15.375055736 -s 0 -d 7 -p cbr -e 532 -c 2 -a 0 -i 27 -k RTR 
- -t 15.375055736 -s 0 -d 7 -p cbr -e 532 -c 2 -a 0 -i 27 -k RTR
h -t 15.375055736 -s 0 -d 7 -p cbr -e 532 -c 2 -a 0 -i 27 -k RTR
+ -t 15.380645972 -s 7 -d 18 -p cbr -e 532 -c 2 -a 0 -i 27 -k RTR 
- -t 15.380645972 -s 7 -d 18 -p cbr -e 532 -c 2 -a 0 -i 27 -k RTR
h -t 15.380645972 -s 7 -d 18 -p cbr -e 532 -c 2 -a 0 -i 27 -k RTR
r -t 15.386420208 -s 18 -d 18 -p cbr -e 512 -c 2 -a 0 -i 27 -k AGT
+ -t 15.445131195 -s 0 -d -1 -p cbr -e 512 -c 2 -a 0 -i 28 -k AGT 
- -t 15.445131195 -s 0 -d -1 -p cbr -e 512 -c 2 -a 0 -i 28 -k AGT
h -t 15.445131195 -s 0 -d -1 -p cbr -e 512 -c 2 -a 0 -i 28 -k AGT
+ -t 15.445131195 -s 0 -d 7 -p cbr -e 532 -c 2 -a 0 -i 28 -k RTR 
- -t 15.445131195 -s 0 -d 7 -p cbr -e 532 -c 2 -a 0 -i 28 -k RTR
h -t 15.445131195 -s 0 -d 7 -p cbr -e 532 -c 2 -a 0 -i 28 -k RTR
+ -t 15.450821431 -s 7 -d 18 -p cbr -e 532 -c 2 -a 0 -i 28 -k RTR 
- -t 15.450821431 -s 7 -d 18 -p cbr -e 532 -c 2 -a 0 -i 28 -k RTR
h -t 15.450821431 -s 7 -d 18 -p cbr -e 532 -c 2 -a 0 -i 28 -k RTR
r -t 15.456695667 -s 18 -d 18 -p cbr -e 512 -c 2 -a 0 -i 28 -k AGT
+ -t 15.486162120 -s 0 -d -1 -p cbr -e 512 -c 2 -a 0 -i 29 -k AGT 
- -t 15.486162120 -s 0 -d -1 -p cbr -e 512 -c 2 -a 0 -i 29 -k AGT
h -t 15.486162120 -s 0 -d -1 -p cbr -e 512 -c 2 -a 0 -i 29 -k AGT
+ -t 15.486162120 -s 0 -d 7 -p cbr -e 532 -c 2 -a 0 -i 29 -k RTR 
- -t 15.486162120 -s 0 -d 7 -p cbr -e 532 -c 2 -a 0 -i 29 -k RTR
h -t 15.486162120 -s 0 -d 7 -p cbr -e 532 -c 2 -a 0 -i 29 -k RTR
+ -t 15.491852356 -s 7 -d 18 -p cbr -e 532 -c 2 -a 0 -i 29 -k RTR 
- -t 15.491852356 -s 7 -d 18 -p cbr -e 532 -c 2 -a 0 -i 29 -k RTR
h -t 15.491852356 -s 7 -d 18 -p cbr -e 532 -c 2 -a 0 -i 29 -k RTR
r -t 15.497926592 -s 18 -d 18 -p cbr -e 512 -c 2 -a 0 -i 29 -k AGT
+ -t 15.551616074 -s 0 -d -1 -p cbr -e 512 -c 2 -a 0 -i 30 -k AGT 
- -t 15.551616074 -s 0 -d -1 -p cbr -e 512 -c 2 -a 0 -i 30 -k AGT
h -t 15.551616074 -s 0 -d -1 -p cbr -e 512 -c 2 -a 0 -i 30 -k AGT
+ -t 15.551616074 -s 0 -d 7 -p cbr -e 532 -c 2 -a 0 -i 30 -k RTR 
- -t 15.551616074 -s 0 -d 7 -p cbr -e 532 -c 2 -a 0 -i 30 -k RTR
h -t 15.551616074 -s 0 -d 7 -p cbr -e 532 -c 2 -a 0 -i 30 -k RTR
+ -t 15.557386310 -s 7 -d 18 -p cbr -e 532 -c 2 -a 0 -i 30 -k RTR 
- -t 15.557386310 -s 7 -d 18 -p cbr -e 532 -c 2 -a 0 -i 30 -k RTR
h -t 15.557386310 -s 7 -d 18 -p cbr -e 532 -c 2 -a 0 -i 30 -k RTR
r -t 15.563280546 -s 18 -d 18 -p cbr -e 512 -c 2 -a 0 -i 30 -k AGT
+ -t 15.594009584 -s 0 -d -1 -p cbr -e 512 -c 2 -a 0 -i 31 -k AGT 
- -t 15.594009584 -s 0 -d -1 -p cbr -e 512 -c 2 -a 0 -i 31 -k AGT
h -t 15.594009584 -s 0 -d -1 -p cbr -e 512 -c 2 -a 0 -i 31 -k AGT
+ -t 15.594009584 -s 0 -d 7 -p cbr -e 532 -c 2 -a 0 -i 31 -k RTR 
- -t 15.594009584 -s 0 -d 7 -p cbr -e 532 -c 2 -a 0 -i 31 -k RTR
h -t 15.594009584 -s 0 -d 7 -p cbr -e 532 -c 2 -a 0 -i 31 -k RTR
+ -t 15.599519820 -s 7 -d 18 -p cbr -e 532 -c 2 -a 0 -i 31 -k RTR 
- -t 15.599519820 -s 7 -d 18 -p cbr -e 532 -c 2 -a 0 -i 31 -k RTR
h -t 15.599519820 -s 7 -d 18 -p cbr -e 532 -c 2 -a 0 -i 31 -k RTR
r -t 15.605754056 -s 18 -d 18 -p cbr -e 512 -c 2 -a 0 -i 31 -k AGT
+ -t 15.665622405 -s 0 -d -1 -p cbr -e 512 -c 2 -a 0 -i 32 -k AGT 
- -t 15.665622405 -s 0 -d -1 -p cbr -e 512 -c 2 -a 0 -i 32 -k AGT
h -t 15.665622405 -s 0 -d -1 -p cbr -e 512 -c 2 -a 0 -i 32 -k AGT
+ -t 15.665622405 -s 0 -d 7 -p cbr -e 532 -c 2 -a 0 -i 32 -k RTR 
- -t 15.665622405 -s 0 -d 7 -p cbr -e 532 -c 2 -a 0 -i 32 -k RTR
h -t 15.665622405 -s 0 -d 7 -p cbr -e 532 -c 2 -a 0 -i 32 -k RTR
+ -t 15.671652641 -s 7 -d 18 -p cbr -e 532 -c 2 -a 0 -i 32 -k RTR 
- -t 15.671652641 -s 7 -d 18 -p cbr -e 532 -c 2 -a 0 -i 32 -k RTR
h -t 15.671652641 -s 7 -d 18 -p cbr -e 532 -c 2 -a 0 -i 32 -k RTR
r -t 15.677926877 -s 18 -d 18 -p cbr -e 512 -c 2 -a 0 -i 32 -k AGT
+ -t 15.738145531 -s 0 -d -1 -p cbr -e 512 -c 2 -a 0 -i 33 -k AGT 
- -t 15.738145531 -s 0 -d -1 -p cbr -e 512 -c 2 -a 0 -i 33 -k AGT
h -t 15.738145531 -s 0 -d -1 -p cbr -e 512 -c 2 -a 0 -i 33 -k AGT
+ -t 15.738145531 -s 0 -d 7 -p cbr -e 532 -c 2 -a 0 -i 33 -k RTR 
- -t 15.738145531 -s 0 -d 7 -p cbr -e 532 -c 2 -a 0 -i 33 -k RTR
h -t 15.738145531 -s 0 -d 7 -p cbr -e 532 -c 2 -a 0 -i 33 -k RTR
+ -t 15.743695768 -s 7 -d 18 -p cbr -e 532 -c 2 -a 0 -i 33 -k RTR 
- -t 15.743695768 -s 7 -d 18 -p cbr -e 532 -c 2 -a 0 -i 33 -k RTR
h -t 15.743695768 -s 7 -d 18 -p cbr -e 532 -c 2 -a 0 -i 33 -k RTR
r -t 15.749550004 -s 18 -d 18 -p cbr -e 512 -c 2 -a 0 -i 33 -k AGT
+ -t 15.784757757 -s 0 -d -1 -p cbr -e 512 -c 2 -a 0 -i 34 -k AGT 
- -t 15.784757757 -s 0 -d -1 -p cbr -e 512 -c 2 -a 0 -i 34 -k AGT
h -t 15.784757757 -s 0 -d -1 -p cbr -e 512 -c 2 -a 0 -i 34 -k AGT
+ -t 15.784757757 -s 0 -d 7 -p cbr -e 532 -c 2 -a 0 -i 34 -k RTR 
- -t 15.784757757 -s 0 -d 7 -p cbr -e 532 -c 2 -a 0 -i 34 -k RTR
h -t 15.784757757 -s 0 -d 7 -p cbr -e 532 -c 2 -a 0 -i 34 -k RTR
+ -t 15.790227993 -s 7 -d 18 -p cbr -e 532 -c 2 -a 0 -i 34 -k RTR 
- -t 15.790227993 -s 7 -d 18 -p cbr -e 532 -c 2 -a 0 -i 34 -k RTR
h -t 15.790227993 -s 7 -d 18 -p cbr -e 532 -c 2 -a 0 -i 34 -k RTR
r -t 15.795942229 -s 18 -d 18 -p cbr -e 512 -c 2 -a 0 -i 34 -k AGT
+ -t 15.820307620 -s 0 -d -1 -p cbr -e 512 -c 2 -a 0 -i 35 -k AGT 
- -t 15.820307620 -s 0 -d -1 -p cbr -e 512 -c 2 -a 0 -i 35 -k AGT
h -t 15.820307620 -s 0 -d -1 -p cbr -e 512 -c 2 -a 0 -i 35 -k AGT
+ -t 15.820307620 -s 0 -d 7 -p cbr -e 532 -c 2 -a 0 -i 35 -k RTR 
- -t 15.820307620 -s 0 -d 7 -p cbr -e 532 -c 2 -a 0 -i 35 -k RTR
h -t 15.820307620 -s 0 -d 7 -p cbr -e 532 -c 2 -a 0 -i 35 -k RTR
+ -t 15.825757856 -s 7 -d 18 -p cbr -e 532 -c 2 -a 0 -i 35 -k RTR 
- -t 15.825757856 -s 7 -d 18 -p cbr -e 532 -c 2 -a 0 -i 35 -k RTR
h -t 15.825757856 -s 7 -d 18 -p cbr -e 532 -c 2 -a 0 -i 35 -k RTR
r -t 15.831812092 -s 18 -d 18 -p cbr -e 512 -c 2 -a 0 -i 35 -k AGT
+ -t 15.865325397 -s 0 -d -1 -p cbr -e 512 -c 2 -a 0 -i 36 -k AGT 
- -t 15.865325397 -s 0 -d -1 -p cbr -e 512 -c 2 -a 0 -i 36 -k AGT
h -t 15.865325397 -s 0 -d -1 -p cbr -e 512 -c 2 -a 0 -i 36 -k AGT
+ -t 15.865325397 -s 0 -d 7 -p cbr -e 532 -c 2 -a 0 -i 36 -k RTR 
- -t 15.865325397 -s 0 -d 7 -p cbr -e 532 -c 2 -a 0 -i 36 -k RTR
h -t 15.865325397 -s 0 -d 7 -p cbr -e 532 -c 2 -a 0 -i 36 -k RTR
+ -t 15.871135633 -s 7 -d 18 -p cbr -e 532 -c 2 -a 0 -i 36 -k RTR 
- -t 15.871135633 -s 7 -d 18 -p cbr -e 532 -c 2 -a 0 -i 36 -k RTR
h -t 15.871135633 -s 7 -d 18 -p cbr -e 532 -c 2 -a 0 -i 36 -k RTR
r -t 15.876949869 -s 18 -d 18 -p cbr -e 512 -c 2 -a 0 -i 36 -k AGT
+ -t 15.901466001 -s 0 -d -1 -p cbr -e 512 -c 2 -a 0 -i 37 -k AGT 
- -t 15.901466001 -s 0 -d -1 -p cbr -e 512 -c 2 -a 0 -i 37 -k AGT
h -t 15.901466001 -s 0 -d -1 -p cbr -e 512 -c 2 -a 0 -i 37 -k AGT
+ -t 15.901466001 -s 0 -d 7 -p cbr -e 532 -c 2 -a 0 -i 37 -k RTR 
- -t 15.901466001 -s 0 -d 7 -p cbr -e 532 -c 2 -a 0 -i 37 -k RTR
h -t 15.901466001 -s 0 -d 7 -p cbr -e 532 -c 2 -a 0 -i 37 -k RTR
+ -t 15.907016237 -s 7 -d 18 -p cbr -e 532 -c 2 -a 0 -i 37 -k RTR 
- -t 15.907016237 -s 7 -d 18 -p cbr -e 532 -c 2 -a 0 -i 37 -k RTR
h -t 15.907016237 -s 7 -d 18 -p cbr -e 532 -c 2 -a 0 -i 37 -k RTR
r -t 15.913310473 -s 18 -d 18 -p cbr -e 512 -c 2 -a 0 -i 37 -k AGT
+ -t 15.957681033 -s 0 -d -1 -p cbr -e 512 -c 2 -a 0 -i 38 -k AGT 
- -t 15.957681033 -s 0 -d -1 -p cbr -e 512 -c 2 -a 0 -i 38 -k AGT
h -t 15.957681033 -s 0 -d -1 -p cbr -e 512 -c 2 -a 0 -i 38 -k AGT
+ -t 15.957681033 -s 0 -d 7 -p cbr -e 532 -c 2 -a 0 -i 38 -k RTR 
- -t 15.957681033 -s 0 -d 7 -p cbr -e 532 -c 2 -a 0 -i 38 -k RTR
h -t 15.957681033 -s 0 -d 7 -p cbr -e 532 -c 2 -a 0 -i 38 -k RTR
+ -t 15.963731269 -s 7 -d 18 -p cbr -e 532 -c 2 -a 0 -i 38 -k RTR 
- -t 15.963731269 -s 7 -d 18 -p cbr -e 532 -c 2 -a 0 -i 38 -k RTR
h -t 15.963731269 -s 7 -d 18 -p cbr -e 532 -c 2 -a 0 -i 38 -k RTR
r -t 15.969505506 -s 18 -d 18 -p cbr -e 512 -c 2 -a 0 -i 38 -k AGT
+ -t 16.029148031 -s 0 -d -1 -p cbr -e 512 -c 2 -a 0 -i 39 -k AGT 
- -t 16.029148031 -s 0 -d -1 -p cbr -e 512 -c 2 -a 0 -i 39 -k AGT
h -t 16.029148031 -s 0 -d -1 -p cbr -e 512 -c 2 -a 0 -i 39 -k AGT
+ -t 16.029148031 -s 0 -d 7 -p cbr -e 532 -c 2 -a 0 -i 39 -k RTR 
- -t 16.029148031 -s 0 -d 7 -p cbr -e 532 -c 2 -a 0 -i 39 -k RTR
h -t 16.029148031 -s 0 -d 7 -p cbr -e 532 -c 2 -a 0 -i 39 -k RTR
+ -t 16.034998267 -s 7 -d 18 -p cbr -e 532 -c 2 -a 0 -i 39 -k RTR 
- -t 16.034998267 -s 7 -d 18 -p cbr -e 532 -c 2 -a 0 -i 39 -k RTR
h -t 16.034998267 -s 7 -d 18 -p cbr -e 532 -c 2 -a 0 -i 39 -k RTR
r -t 16.040832503 -s 18 -d 18 -p cbr -e 512 -c 2 -a 0 -i 39 -k AGT
+ -t 16.097361222 -s 0 -d -1 -p cbr -e 512 -c 2 -a 0 -i 40 -k AGT 
- -t 16.097361222 -s 0 -d -1 -p cbr -e 512 -c 2 -a 0 -i 40 -k AGT
h -t 16.097361222 -s 0 -d -1 -p cbr -e 512 -c 2 -a 0 -i 40 -k AGT
+ -t 16.097361222 -s 0 -d 7 -p cbr -e 532 -c 2 -a 0 -i 40 -k RTR 
- -t 16.097361222 -s 0 -d 7 -p cbr -e 532 -c 2 -a 0 -i 40 -k RTR
h -t 16.097361222 -s 0 -d 7 -p cbr -e 532 -c 2 -a 0 -i 40 -k RTR
+ -t 16.102971458 -s 7 -d 18 -p cbr -e 532 -c 2 -a 0 -i 40 -k RTR 
- -t 16.102971458 -s 7 -d 18 -p cbr -e 532 -c 2 -a 0 -i 40 -k RTR
h -t 16.102971458 -s 7 -d 18 -p cbr -e 532 -c 2 -a 0 -i 40 -k RTR
r -t 16.108825694 -s 18 -d 18 -p cbr -e 512 -c 2 -a 0 -i 40 -k AGT
+ -t 16.132686604 -s 0 -d -1 -p cbr -e 512 -c 2 -a 0 -i 41 -k AGT 
- -t 16.132686604 -s 0 -d -1 -p cbr -e 512 -c 2 -a 0 -i 41 -k AGT
h -t 16.132686604 -s 0 -d -1 -p cbr -e 512 -c 2 -a 0 -i 41 -k AGT
+ -t 16.132686604 -s 0 -d 7 -p cbr -e 532 -c 2 -a 0 -i 41 -k RTR 
- -t 16.132686604 -s 0 -d 7 -p cbr -e 532 -c 2 -a 0 -i 41 -k RTR
h -t 16.132686604 -s 0 -d 7 -p cbr -e 532 -c 2 -a 0 -i 41 -k RTR
+ -t 16.138356840 -s 7 -d 18 -p cbr -e 532 -c 2 -a 0 -i 41 -k RTR 
- -t 16.138356840 -s 7 -d 18 -p cbr -e 532 -c 2 -a 0 -i 41 -k RTR
h -t 16.138356840 -s 7 -d 18 -p cbr -e 532 -c 2 -a 0 -i 41 -k RTR
r -t 16.144531076 -s 18 -d 18 -p cbr -e 512 -c 2 -a 0 -i 41 -k AGT
+ -t 16.190652534 -s 0 -d -1 -p cbr -e 512 -c 2 -a 0 -i 42 -k AGT 
- -t 16.190652534 -s 0 -d -1 -p cbr -e 512 -c 2 -a 0 -i 42 -k AGT
h -t 16.190652534 -s 0 -d -1 -p cbr -e 512 -c 2 -a 0 -i 42 -k AGT
+ -t 16.190652534 -s 0 -d 7 -p cbr -e 532 -c 2 -a 0 -i 42 -k RTR 
- -t 16.190652534 -s 0 -d 7 -p cbr -e 532 -c 2 -a 0 -i 42 -k RTR
h -t 16.190652534 -s 0 -d 7 -p cbr -e 532 -c 2 -a 0 -i 42 -k RTR
+ -t 16.196222770 -s 7 -d 18 -p cbr -e 532 -c 2 -a 0 -i 42 -k RTR 
- -t 16.196222770 -s 7 -d 18 -p cbr -e 532 -c 2 -a 0 -i 42 -k RTR
h -t 16.196222770 -s 7 -d 18 -p cbr -e 532 -c 2 -a 0 -i 42 -k RTR
r -t 16.202257006 -s 18 -d 18 -p cbr -e 512 -c 2 -a 0 -i 42 -k AGT
+ -t 16.231305080 -s 0 -d -1 -p cbr -e 512 -c 2 -a 0 -i 43 -k AGT 
- -t 16.231305080 -s 0 -d -1 -p cbr -e 512 -c 2 -a 0 -i 43 -k AGT
h -t 16.231305080 -s 0 -d -1 -p cbr -e 512 -c 2 -a 0 -i 43 -k AGT
+ -t 16.231305080 -s 0 -d 7 -p cbr -e 532 -c 2 -a 0 -i 43 -k RTR 
- -t 16.231305080 -s 0 -d 7 -p cbr -e 532 -c 2 -a 0 -i 43 -k RTR
h -t 16.231305080 -s 0 -d 7 -p cbr -e 532 -c 2 -a 0 -i 43 -k RTR
+ -t 16.237195316 -s 7 -d 18 -p cbr -e 532 -c 2 -a 0 -i 43 -k RTR 
- -t 16.237195316 -s 7 -d 18 -p cbr -e 532 -c 2 -a 0 -i 43 -k RTR
h -t 16.237195316 -s 7 -d 18 -p cbr -e 532 -c 2 -a 0 -i 43 -k RTR
r -t 16.243249552 -s 18 -d 18 -p cbr -e 512 -c 2 -a 0 -i 43 -k AGT
+ -t 16.263024563 -s 0 -d -1 -p cbr -e 512 -c 2 -a 0 -i 44 -k AGT 
- -t 16.263024563 -s 0 -d -1 -p cbr -e 512 -c 2 -a 0 -i 44 -k AGT
h -t 16.263024563 -s 0 -d -1 -p cbr -e 512 -c 2 -a 0 -i 44 -k AGT
+ -t 16.263024563 -s 0 -d 7 -p cbr -e 532 -c 2 -a 0 -i 44 -k RTR 
- -t 16.263024563 -s 0 -d 7 -p cbr -e 532 -c 2 -a 0 -i 44 -k RTR
h -t 16.263024563 -s 0 -d 7 -p cbr -e 532 -c 2 -a 0 -i 44 -k RTR
+ -t 16.268634799 -s 7 -d 18 -p cbr -e 532 -c 2 -a 0 -i 44 -k RTR 
- -t 16.268634799 -s 7 -d 18 -p cbr -e 532 -c 2 -a 0 -i 44 -k RTR
h -t 16.268634799 -s 7 -d 18 -p cbr -e 532 -c 2 -a 0 -i 44 -k RTR