Sconfig 0.00000 tap: on snoop: rts? on errs? on
Sconfig 0.00000 salvage: on !bd replies? on
Sconfig 0.00000 grat error: on grat reply: on
Sconfig 0.00000 $reply for props: on ring 0 search: on
Sconfig 0.00000 using MOBICACHE
s 15.000000000 _0_ AGT  --- 0 cbr 512 [0 0 0 0] ------- [0:0 23:0 32 0] [0] 0 0
r 15.000000000 _0_ RTR  --- 0 cbr 512 [0 0 0 0] ------- [0:0 23:0 32 0] [0] 0 0
s 15.008890119 _0_ RTR  --- 1 DSR 32 [0 0 0 0] ------- [0:255 23:255 32 0] 1 [1 1] [0 1 0 0->0] [0 0 0 0->0]
r 15.010062452 _5_ RTR  --- 1 DSR 32 [0 ffffffff 0 800] ------- [0:255 23:255 32 0] 1 [1 1] [0 1 0 0->0] [0 0 0 0->0]
r 15.010062452 _1_ RTR  --- 1 DSR 32 [0 ffffffff 0 800] ------- [0:255 23:255 32 0] 1 [1 1] [0 1 0 0->0] [0 0 0 0->0]
r 15.010062590 _6_ RTR  --- 1 DSR 32 [0 ffffffff 0 800] ------- [0:255 23:255 32 0] 1 [1 1] [0 1 0 0->0] [0 0 0 0->0]
r 15.010062785 _10_ RTR  --- 1 DSR 32 [0 ffffffff 0 800] ------- [0:255 23:255 32 0] 1 [1 1] [0 1 0 0->0] [0 0 0 0->0]
r 15.010062785 _2_ RTR  --- 1 DSR 32 [0 ffffffff 0 800] ------- [0:255 23:255 32 0] 1 [1 1] [0 1 0 0->0] [0 0 0 0->0]
r 15.010062864 _11_ RTR  --- 1 DSR 32 [0 ffffffff 0 800] ------- [0:255 23:255 32 0] 1 [1 1] [0 1 0 0->0] [0 0 0 0->0]
r 15.010062864 _7_ RTR  --- 1 DSR 32 [0 ffffffff 0 800] ------- [0:255 23:255 32 0] 1 [1 1] [0 1 0 0->0] [0 0 0 0->0]
s 15.059350291 _0_ AGT  --- 3 cbr 512 [0 0 0 0] ------- [0:0 23:0 32 0] [1] 0 0
r 15.059350291 _0_ RTR  --- 3 cbr 512 [0 0 0 0] ------- [0:0 23:0 32 0] [1] 0 0
s 15.060942607 _0_ RTR  --- 4 DSR 32 [0 0 0 0] ------- [0:255 23:255 32 0] 1 [1 2] [0 2 0 0->16] [0 0 0 0->0]
r 15.062114940 _5_ RTR  --- 4 DSR 32 [0 ffffffff 0 800] ------- [0:255 23:255 32 0] 1 [1 2] [0 2 0 0->16] [0 0 0 0->0]
r 15.062114940 _1_ RTR  --- 4 DSR 32 [0 ffffffff 0 800] ------- [0:255 23:255 32 0] 1 [1 2] [0 2 0 0->16] [0 0 0 0->0]
r 15.062115078 _6_ RTR  --- 4 DSR 32 [0 ffffffff 0 800] ------- [0:255 23:255 32 0] 1 [1 2] [0 2 0 0->16] [0 0 0 0->0]
r 15.062115274 _10_ RTR  --- 4 DSR 32 [0 ffffffff 0 800] ------- [0:255 23:255 32 0] 1 [1 2] [0 2 0 0->16] [0 0 0 0->0]
r 15.062115274 _2_ RTR  --- 4 DSR 32 [0 ffffffff 0 800] ------- [0:255 23:255 32 0] 1 [1 2] [0 2 0 0->16] [0 0 0 0->0]
r 15.062115352 _11_ RTR  --- 4 DSR 32 [0 ffffffff 0 800] ------- [0:255 23:255 32 0] 1 [1 2] [0 2 0 0->16] [0 0 0 0->0]
r 15.062115352 _7_ RTR  --- 4 DSR 32 [0 ffffffff 0 800] ------- [0:255 23:255 32 0] 1 [1 2] [0 2 0 0->16] [0 0 0 0->0]
f 15.064492048 _6_ RTR  --- 4 DSR 48 [0 ffffffff 0 800] ------- [0:255 23:255 32 0] 2 [1 2] [0 2 0 0->16] [0 0 0 0->0]
f 15.065756319 _10_ RTR  --- 4 DSR 48 [0 ffffffff 0 800] ------- [0:255 23:255 32 0] 2 [1 2] [0 2 0 0->16] [0 0 0 0->0]
r 15.065812381 _1_ RTR  --- 4 DSR 48 [0 ffffffff 6 800] ------- [0:255 23:255 32 0] 2 [1 2] [0 2 0 0->16] [0 0 0 0->0]
r 15.065812381 _5_ RTR  --- 4 DSR 48 [0 ffffffff 6 800] ------- [0:255 23:255 32 0] 2 [1 2] [0 2 0 0->16] [0 0 0 0->0]
r 15.065812381 _11_ RTR  --- 4 DSR 48 [0 ffffffff 6 800] ------- [0:255 23:255 32 0] 2 [1 2] [0 2 0 0->16] [0 0 0 0->0]
r 15.065812381 _7_ RTR  --- 4 DSR 48 [0 ffffffff 6 800] ------- [0:255 23:255 32 0] 2 [1 2] [0 2 0 0->16] [0 0 0 0->0]
r 15.065812519 _10_ RTR  --- 4 DSR 48 [0 ffffffff 6 800] ------- [0:255 23:255 32 0] 2 [1 2] [0 2 0 0->16] [0 0 0 0->0]
r 15.065812519 _0_ RTR  --- 4 DSR 48 [0 ffffffff 6 800] ------- [0:255 23:255 32 0] 2 [1 2] [0 2 0 0->16] [0 0 0 0->0]
r 15.065812519 _2_ RTR  --- 4 DSR 48 [0 ffffffff 6 800] ------- [0:255 23:255 32 0] 2 [1 2] [0 2 0 0->16] [0 0 0 0->0]
r 15.065812519 _12_ RTR  --- 4 DSR 48 [0 ffffffff 6 800] ------- [0:255 23:255 32 0] 2 [1 2] [0 2 0 0->16] [0 0 0 0->0]
r 15.065812714 _16_ RTR  --- 4 DSR 48 [0 ffffffff 6 800] ------- [0:255 23:255 32 0] 2 [1 2] [0 2 0 0->16] [0 0 0 0->0]
r 15.065812714 _8_ RTR  --- 4 DSR 48 [0 ffffffff 6 800] ------- [0:255 23:255 32 0] 2 [1 2] [0 2 0 0->16] [0 0 0 0->0]
r 15.065812793 _15_ RTR  --- 4 DSR 48 [0 ffffffff 6 800] ------- [0:255 23:255 32 0] 2 [1 2] [0 2 0 0->16] [0 0 0 0->0]
r 15.065812793 _17_ RTR  --- 4 DSR 48 [0 ffffffff 6 800] ------- [0:255 23:255 32 0] 2 [1 2] [0 2 0 0->16] [0 0 0 0->0]
r 15.065812793 _3_ RTR  --- 4 DSR 48 [0 ffffffff 6 800] ------- [0:255 23:255 32 0] 2 [1 2] [0 2 0 0->16] [0 0 0 0->0]
r 15.065812793 _13_ RTR  --- 4 DSR 48 [0 ffffffff 6 800] ------- [0:255 23:255 32 0] 2 [1 2] [0 2 0 0->16] [0 0 0 0->0]
f 15.066079032 _1_ RTR  --- 4 DSR 48 [0 ffffffff 0 800] ------- [0:255 23:255 32 0] 2 [1 2] [0 2 0 0->16] [0 0 0 0->0]
r 15.066942852 _5_ RTR  --- 4 DSR 48 [0 ffffffff a 800] ------- [0:255 23:255 32 0] 2 [1 2] [0 2 0 0->16] [0 0 0 0->0]
r 15.066942852 _15_ RTR  --- 4 DSR 48 [0 ffffffff a 800] ------- [0:255 23:255 32 0] 2 [1 2] [0 2 0 0->16] [0 0 0 0->0]
r 15.066942852 _11_ RTR  --- 4 DSR 48 [0 ffffffff a 800] ------- [0:255 23:255 32 0] 2 [1 2] [0 2 0 0->16] [0 0 0 0->0]
r 15.066942991 _6_ RTR  --- 4 DSR 48 [0 ffffffff a 800] ------- [0:255 23:255 32 0] 2 [1 2] [0 2 0 0->16] [0 0 0 0->0]
r 15.066942991 _16_ RTR  --- 4 DSR 48 [0 ffffffff a 800] ------- [0:255 23:255 32 0] 2 [1 2] [0 2 0 0->16] [0 0 0 0->0]
r 15.066943186 _0_ RTR  --- 4 DSR 48 [0 ffffffff a 800] ------- [0:255 23:255 32 0] 2 [1 2] [0 2 0 0->16] [0 0 0 0->0]
r 15.066943186 _20_ RTR  --- 4 DSR 48 [0 ffffffff a 800] ------- [0:255 23:255 32 0] 2 [1 2] [0 2 0 0->16] [0 0 0 0->0]
r 15.066943186 _12_ RTR  --- 4 DSR 48 [0 ffffffff a 800] ------- [0:255 23:255 32 0] 2 [1 2] [0 2 0 0->16] [0 0 0 0->0]
r 15.066943264 _1_ RTR  --- 4 DSR 48 [0 ffffffff a 800] ------- [0:255 23:255 32 0] 2 [1 2] [0 2 0 0->16] [0 0 0 0->0]
r 15.066943264 _21_ RTR  --- 4 DSR 48 [0 ffffffff a 800] ------- [0:255 23:255 32 0] 2 [1 2] [0 2 0 0->16] [0 0 0 0->0]
r 15.066943264 _7_ RTR  --- 4 DSR 48 [0 ffffffff a 800] ------- [0:255 23:255 32 0] 2 [1 2] [0 2 0 0->16] [0 0 0 0->0]
r 15.066943264 _17_ RTR  --- 4 DSR 48 [0 ffffffff a 800] ------- [0:255 23:255 32 0] 2 [1 2] [0 2 0 0->16] [0 0 0 0->0]
f 15.067486570 _21_ RTR  --- 4 DSR 68 [0 ffffffff a 800] ------- [0:255 23:255 32 0] 3 [1 2] [0 2 0 0->16] [0 0 0 0->0]
f 15.067657466 _16_ RTR  --- 4 DSR 68 [0 ffffffff 6 800] ------- [0:255 23:255 32 0] 3 [1 2] [0 2 0 0->16] [0 0 0 0->0]
r 15.067853598 _0_ RTR  --- 4 DSR 48 [0 ffffffff 1 800] ------- [0:255 23:255 32 0] 2 [1 2] [0 2 0 0->16] [0 0 0 0->0]
r 15.067853598 _6_ RTR  --- 4 DSR 48 [0 ffffffff 1 800] ------- [0:255 23:255 32 0] 2 [1 2] [0 2 0 0->16] [0 0 0 0->0]
r 15.067853598 _2_ RTR  --- 4 DSR 48 [0 ffffffff 1 800] ------- [0:255 23:255 32 0] 2 [1 2] [0 2 0 0->16] [0 0 0 0->0]
r 15.067853736 _5_ RTR  --- 4 DSR 48 [0 ffffffff 1 800] ------- [0:255 23:255 32 0] 2 [1 2] [0 2 0 0->16] [0 0 0 0->0]
r 15.067853736 _7_ RTR  --- 4 DSR 48 [0 ffffffff 1 800] ------- [0:255 23:255 32 0] 2 [1 2] [0 2 0 0->16] [0 0 0 0->0]
r 15.067853931 _11_ RTR  --- 4 DSR 48 [0 ffffffff 1 800] ------- [0:255 23:255 32 0] 2 [1 2] [0 2 0 0->16] [0 0 0 0->0]
r 15.067853931 _3_ RTR  --- 4 DSR 48 [0 ffffffff 1 800] ------- [0:255 23:255 32 0] 2 [1 2] [0 2 0 0->16] [0 0 0 0->0]
r 15.067854010 _10_ RTR  --- 4 DSR 48 [0 ffffffff 1 800] ------- [0:255 23:255 32 0] 2 [1 2] [0 2 0 0->16] [0 0 0 0->0]
r 15.067854010 _12_ RTR  --- 4 DSR 48 [0 ffffffff 1 800] ------- [0:255 23:255 32 0] 2 [1 2] [0 2 0 0->16] [0 0 0 0->0]
r 15.067854010 _8_ RTR  --- 4 DSR 48 [0 ffffffff 1 800] ------- [0:255 23:255 32 0] 2 [1 2] [0 2 0 0->16] [0 0 0 0->0]
f 15.068008068 _7_ RTR  --- 4 DSR 48 [0 ffffffff 0 800] ------- [0:255 23:255 32 0] 2 [1 2] [0 2 0 0->16] [0 0 0 0->0]
f 15.068087922 _17_ RTR  --- 4 DSR 68 [0 ffffffff 6 800] ------- [0:255 23:255 32 0] 3 [1 2] [0 2 0 0->16] [0 0 0 0->0]
f 15.068587991 _13_ RTR  --- 4 DSR 68 [0 ffffffff 6 800] ------- [0:255 23:255 32 0] 3 [1 2] [0 2 0 0->16] [0 0 0 0->0]
f 15.068877523 _2_ RTR  --- 4 DSR 48 [0 ffffffff 0 800] ------- [0:255 23:255 32 0] 2 [1 2] [0 2 0 0->16] [0 0 0 0->0]
r 15.069148401 _2_ RTR  --- 4 DSR 48 [0 ffffffff 7 800] ------- [0:255 23:255 32 0] 2 [1 2] [0 2 0 0->16] [0 0 0 0->0]
r 15.069148401 _6_ RTR  --- 4 DSR 48 [0 ffffffff 7 800] ------- [0:255 23:255 32 0] 2 [1 2] [0 2 0 0->16] [0 0 0 0->0]
r 15.069148401 _12_ RTR  --- 4 DSR 48 [0 ffffffff 7 800] ------- [0:255 23:255 32 0] 2 [1 2] [0 2 0 0->16] [0 0 0 0->0]
r 15.069148401 _8_ RTR  --- 4 DSR 48 [0 ffffffff 7 800] ------- [0:255 23:255 32 0] 2 [1 2] [0 2 0 0->16] [0 0 0 0->0]
r 15.069148539 _11_ RTR  --- 4 DSR 48 [0 ffffffff 7 800] ------- [0:255 23:255 32 0] 2 [1 2] [0 2 0 0->16] [0 0 0 0->0]
r 15.069148539 _1_ RTR  --- 4 DSR 48 [0 ffffffff 7 800] ------- [0:255 23:255 32 0] 2 [1 2] [0 2 0 0->16] [0 0 0 0->0]
r 15.069148539 _3_ RTR  --- 4 DSR 48 [0 ffffffff 7 800] ------- [0:255 23:255 32 0] 2 [1 2] [0 2 0 0->16] [0 0 0 0->0]
r 15.069148539 _13_ RTR  --- 4 DSR 48 [0 ffffffff 7 800] ------- [0:255 23:255 32 0] 2 [1 2] [0 2 0 0->16] [0 0 0 0->0]
r 15.069148734 _5_ RTR  --- 4 DSR 48 [0 ffffffff 7 800] ------- [0:255 23:255 32 0] 2 [1 2] [0 2 0 0->16] [0 0 0 0->0]
r 15.069148734 _17_ RTR  --- 4 DSR 48 [0 ffffffff 7 800] ------- [0:255 23:255 32 0] 2 [1 2] [0 2 0 0->16] [0 0 0 0->0]
r 15.069148734 _9_ RTR  --- 4 DSR 48 [0 ffffffff 7 800] ------- [0:255 23:255 32 0] 2 [1 2] [0 2 0 0->16] [0 0 0 0->0]
r 15.069148813 _16_ RTR  --- 4 DSR 48 [0 ffffffff 7 800] ------- [0:255 23:255 32 0] 2 [1 2] [0 2 0 0->16] [0 0 0 0->0]
r 15.069148813 _10_ RTR  --- 4 DSR 48 [0 ffffffff 7 800] ------- [0:255 23:255 32 0] 2 [1 2] [0 2 0 0->16] [0 0 0 0->0]
r 15.069148813 _0_ RTR  --- 4 DSR 48 [0 ffffffff 7 800] ------- [0:255 23:255 32 0] 2 [1 2] [0 2 0 0->16] [0 0 0 0->0]
r 15.069148813 _18_ RTR  --- 4 DSR 48 [0 ffffffff 7 800] ------- [0:255 23:255 32 0] 2 [1 2] [0 2 0 0->16] [0 0 0 0->0]
r 15.069148813 _4_ RTR  --- 4 DSR 48 [0 ffffffff 7 800] ------- [0:255 23:255 32 0] 2 [1 2] [0 2 0 0->16] [0 0 0 0->0]
r 15.069148813 _14_ RTR  --- 4 DSR 48 [0 ffffffff 7 800] ------- [0:255 23:255 32 0] 2 [1 2] [0 2 0 0->16] [0 0 0 0->0]
f 15.069863345 _11_ RTR  --- 4 DSR 48 [0 ffffffff 0 800] ------- [0:255 23:255 32 0] 2 [1 2] [0 2 0 0->16] [0 0 0 0->0]
r 15.070058734 _1_ RTR  --- 4 DSR 48 [0 ffffffff 2 800] ------- [0:255 23:255 32 0] 2 [1 2] [0 2 0 0->16] [0 0 0 0->0]
r 15.070058734 _7_ RTR  --- 4 DSR 48 [0 ffffffff 2 800] ------- [0:255 23:255 32 0] 2 [1 2] [0 2 0 0->16] [0 0 0 0->0]
r 15.070058734 _3_ RTR  --- 4 DSR 48 [0 ffffffff 2 800] ------- [0:255 23:255 32 0] 2 [1 2] [0 2 0 0->16] [0 0 0 0->0]
r 15.070058872 _6_ RTR  --- 4 DSR 48 [0 ffffffff 2 800] ------- [0:255 23:255 32 0] 2 [1 2] [0 2 0 0->16] [0 0 0 0->0]
r 15.070058872 _8_ RTR  --- 4 DSR 48 [0 ffffffff 2 800] ------- [0:255 23:255 32 0] 2 [1 2] [0 2 0 0->16] [0 0 0 0->0]
r 15.070059068 _0_ RTR  --- 4 DSR 48 [0 ffffffff 2 800] ------- [0:255 23:255 32 0] 2 [1 2] [0 2 0 0->16] [0 0 0 0->0]
r 15.070059068 _12_ RTR  --- 4 DSR 48 [0 ffffffff 2 800] ------- [0:255 23:255 32 0] 2 [1 2] [0 2 0 0->16] [0 0 0 0->0]
r 15.070059068 _4_ RTR  --- 4 DSR 48 [0 ffffffff 2 800] ------- [0:255 23:255 32 0] 2 [1 2] [0 2 0 0->16] [0 0 0 0->0]
r 15.070059146 _11_ RTR  --- 4 DSR 48 [0 ffffffff 2 800] ------- [0:255 23:255 32 0] 2 [1 2] [0 2 0 0->16] [0 0 0 0->0]
r 15.070059146 _5_ RTR  --- 4 DSR 48 [0 ffffffff 2 800] ------- [0:255 23:255 32 0] 2 [1 2] [0 2 0 0->16] [0 0 0 0->0]
r 15.070059146 _13_ RTR  --- 4 DSR 48 [0 ffffffff 2 800] ------- [0:255 23:255 32 0] 2 [1 2] [0 2 0 0->16] [0 0 0 0->0]
r 15.070059146 _9_ RTR  --- 4 DSR 48 [0 ffffffff 2 800] ------- [0:255 23:255 32 0] 2 [1 2] [0 2 0 0->16] [0 0 0 0->0]
r 15.071089480 _8_ RTR  --- 4 DSR 68 [0 ffffffff d 800] ------- [0:255 23:255 32 0] 3 [1 2] [0 2 0 0->16] [0 0 0 0->0]
r 15.071089480 _12_ RTR  --- 4 DSR 68 [0 ffffffff d 800] ------- [0:255 23:255 32 0] 3 [1 2] [0 2 0 0->16] [0 0 0 0->0]
r 15.071089480 _18_ RTR  --- 4 DSR 68 [0 ffffffff d 800] ------- [0:255 23:255 32 0] 3 [1 2] [0 2 0 0->16] [0 0 0 0->0]
r 15.071089480 _14_ RTR  --- 4 DSR 68 [0 ffffffff d 800] ------- [0:255 23:255 32 0] 3 [1 2] [0 2 0 0->16] [0 0 0 0->0]
r 15.071089618 _17_ RTR  --- 4 DSR 68 [0 ffffffff d 800] ------- [0:255 23:255 32 0] 3 [1 2] [0 2 0 0->16] [0 0 0 0->0]
r 15.071089618 _7_ RTR  --- 4 DSR 68 [0 ffffffff d 800] ------- [0:255 23:255 32 0] 3 [1 2] [0 2 0 0->16] [0 0 0 0->0]
r 15.071089618 _9_ RTR  --- 4 DSR 68 [0 ffffffff d 800] ------- [0:255 23:255 32 0] 3 [1 2] [0 2 0 0->16] [0 0 0 0->0]
r 15.071089618 _19_ RTR  --- 4 DSR 68 [0 ffffffff d 800] ------- [0:255 23:255 32 0] 3 [1 2] [0 2 0 0->16] [0 0 0 0->0]
r 15.071089813 _3_ RTR  --- 4 DSR 68 [0 ffffffff d 800] ------- [0:255 23:255 32 0] 3 [1 2] [0 2 0 0->16] [0 0 0 0->0]
r 15.071089813 _11_ RTR  --- 4 DSR 68 [0 ffffffff d 800] ------- [0:255 23:255 32 0] 3 [1 2] [0 2 0 0->16] [0 0 0 0->0]
r 15.071089813 _23_ RTR  --- 4 DSR 68 [0 ffffffff d 800] ------- [0:255 23:255 32 0] 3 [1 2] [0 2 0 0->16] [0 0 0 0->0]
r 15.071089892 _22_ RTR  --- 4 DSR 68 [0 ffffffff d 800] ------- [0:255 23:255 32 0] 3 [1 2] [0 2 0 0->16] [0 0 0 0->0]
r 15.071089892 _2_ RTR  --- 4 DSR 68 [0 ffffffff d 800] ------- [0:255 23:255 32 0] 3 [1 2] [0 2 0 0->16] [0 0 0 0->0]
r 15.071089892 _16_ RTR  --- 4 DSR 68 [0 ffffffff d 800] ------- [0:255 23:255 32 0] 3 [1 2] [0 2 0 0->16] [0 0 0 0->0]
r 15.071089892 _6_ RTR  --- 4 DSR 68 [0 ffffffff d 800] ------- [0:255 23:255 32 0] 3 [1 2] [0 2 0 0->16] [0 0 0 0->0]
r 15.071089892 _4_ RTR  --- 4 DSR 68 [0 ffffffff d 800] ------- [0:255 23:255 32 0] 3 [1 2] [0 2 0 0->16] [0 0 0 0->0]
r 15.071089892 _24_ RTR  --- 4 DSR 68 [0 ffffffff d 800] ------- [0:255 23:255 32 0] 3 [1 2] [0 2 0 0->16] [0 0 0 0->0]
f 15.071211265 _5_ RTR  --- 4 DSR 48 [0 ffffffff 0 800] ------- [0:255 23:255 32 0] 2 [1 2] [0 2 0 0->16] [0 0 0 0->0]
f 15.071253759 _18_ RTR  --- 4 DSR 68 [0 ffffffff 7 800] ------- [0:255 23:255 32 0] 3 [1 2] [0 2 0 0->16] [0 0 0 0->0]
f 15.072031290 _12_ RTR  --- 4 DSR 68 [0 ffffffff 6 800] ------- [0:255 23:255 32 0] 3 [1 2] [0 2 0 0->16] [0 0 0 0->0]
r 15.072260225 _11_ RTR  --- 4 DSR 68 [0 ffffffff 10 800] ------- [0:255 23:255 32 0] 3 [1 2] [0 2 0 0->16] [0 0 0 0->0]
r 15.072260225 _15_ RTR  --- 4 DSR 68 [0 ffffffff 10 800] ------- [0:255 23:255 32 0] 3 [1 2] [0 2 0 0->16] [0 0 0 0->0]
r 15.072260225 _21_ RTR  --- 4 DSR 68 [0 ffffffff 10 800] ------- [0:255 23:255 32 0] 3 [1 2] [0 2 0 0->16] [0 0 0 0->0]
r 15.072260225 _17_ RTR  --- 4 DSR 68 [0 ffffffff 10 800] ------- [0:255 23:255 32 0] 3 [1 2] [0 2 0 0->16] [0 0 0 0->0]
r 15.072260363 _20_ RTR  --- 4 DSR 68 [0 ffffffff 10 800] ------- [0:255 23:255 32 0] 3 [1 2] [0 2 0 0->16] [0 0 0 0->0]
r 15.072260363 _10_ RTR  --- 4 DSR 68 [0 ffffffff 10 800] ------- [0:255 23:255 32 0] 3 [1 2] [0 2 0 0->16] [0 0 0 0->0]
r 15.072260363 _12_ RTR  --- 4 DSR 68 [0 ffffffff 10 800] ------- [0:255 23:255 32 0] 3 [1 2] [0 2 0 0->16] [0 0 0 0->0]
r 15.072260363 _22_ RTR  --- 4 DSR 68 [0 ffffffff 10 800] ------- [0:255 23:255 32 0] 3 [1 2] [0 2 0 0->16] [0 0 0 0->0]
r 15.072260558 _6_ RTR  --- 4 DSR 68 [0 ffffffff 10 800] ------- [0:255 23:255 32 0] 3 [1 2] [0 2 0 0->16] [0 0 0 0->0]
r 15.072260558 _18_ RTR  --- 4 DSR 68 [0 ffffffff 10 800] ------- [0:255 23:255 32 0] 3 [1 2] [0 2 0 0->16] [0 0 0 0->0]
r 15.072260637 _5_ RTR  --- 4 DSR 68 [0 ffffffff 10 800] ------- [0:255 23:255 32 0] 3 [1 2] [0 2 0 0->16] [0 0 0 0->0]
r 15.072260637 _7_ RTR  --- 4 DSR 68 [0 ffffffff 10 800] ------- [0:255 23:255 32 0] 3 [1 2] [0 2 0 0->16] [0 0 0 0->0]
r 15.072260637 _13_ RTR  --- 4 DSR 68 [0 ffffffff 10 800] ------- [0:255 23:255 32 0] 3 [1 2] [0 2 0 0->16] [0 0 0 0->0]
r 15.072260637 _23_ RTR  --- 4 DSR 68 [0 ffffffff 10 800] ------- [0:255 23:255 32 0] 3 [1 2] [0 2 0 0->16] [0 0 0 0->0]
f 15.072536562 _9_ RTR  --- 4 DSR 68 [0 ffffffff 7 800] ------- [0:255 23:255 32 0] 3 [1 2] [0 2 0 0->16] [0 0 0 0->0]
f 15.073148831 _8_ RTR  --- 4 DSR 68 [0 ffffffff 6 800] ------- [0:255 23:255 32 0] 3 [1 2] [0 2 0 0->16] [0 0 0 0->0]
r 15.073290558 _16_ RTR  --- 4 DSR 68 [0 ffffffff 15 800] ------- [0:255 23:255 32 0] 3 [1 2] [0 2 0 0->16] [0 0 0 0->0]
r 15.073290558 _20_ RTR  --- 4 DSR 68 [0 ffffffff 15 800] ------- [0:255 23:255 32 0] 3 [1 2] [0 2 0 0->16] [0 0 0 0->0]
r 15.073290558 _22_ RTR  --- 4 DSR 68 [0 ffffffff 15 800] ------- [0:255 23:255 32 0] 3 [1 2] [0 2 0 0->16] [0 0 0 0->0]
r 15.073290696 _15_ RTR  --- 4 DSR 68 [0 ffffffff 15 800] ------- [0:255 23:255 32 0] 3 [1 2] [0 2 0 0->16] [0 0 0 0->0]
r 15.073290696 _17_ RTR  --- 4 DSR 68 [0 ffffffff 15 800] ------- [0:255 23:255 32 0] 3 [1 2] [0 2 0 0->16] [0 0 0 0->0]
r 15.073290892 _11_ RTR  --- 4 DSR 68 [0 ffffffff 15 800] ------- [0:255 23:255 32 0] 3 [1 2] [0 2 0 0->16] [0 0 0 0->0]
r 15.073290892 _23_ RTR  --- 4 DSR 68 [0 ffffffff 15 800] ------- [0:255 23:255 32 0] 3 [1 2] [0 2 0 0->16] [0 0 0 0->0]
r 15.073290970 _10_ RTR  --- 4 DSR 68 [0 ffffffff 15 800] ------- [0:255 23:255 32 0] 3 [1 2] [0 2 0 0->16] [0 0 0 0->0]
r 15.073290970 _12_ RTR  --- 4 DSR 68 [0 ffffffff 15 800] ------- [0:255 23:255 32 0] 3 [1 2] [0 2 0 0->16] [0 0 0 0->0]
r 15.073290970 _18_ RTR  --- 4 DSR 68 [0 ffffffff 15 800] ------- [0:255 23:255 32 0] 3 [1 2] [0 2 0 0->16] [0 0 0 0->0]
r 15.074341030 _12_ RTR  --- 4 DSR 68 [0 ffffffff 11 800] ------- [0:255 23:255 32 0] 3 [1 2] [0 2 0 0->16] [0 0 0 0->0]
r 15.074341030 _16_ RTR  --- 4 DSR 68 [0 ffffffff 11 800] ------- [0:255 23:255 32 0] 3 [1 2] [0 2 0 0->16] [0 0 0 0->0]
r 15.074341030 _22_ RTR  --- 4 DSR 68 [0 ffffffff 11 800] ------- [0:255 23:255 32 0] 3 [1 2] [0 2 0 0->16] [0 0 0 0->0]
r 15.074341030 _18_ RTR  --- 4 DSR 68 [0 ffffffff 11 800] ------- [0:255 23:255 32 0] 3 [1 2] [0 2 0 0->16] [0 0 0 0->0]
r 15.074341168 _21_ RTR  --- 4 DSR 68 [0 ffffffff 11 800] ------- [0:255 23:255 32 0] 3 [1 2] [0 2 0 0->16] [0 0 0 0->0]
r 15.074341168 _11_ RTR  --- 4 DSR 68 [0 ffffffff 11 800] ------- [0:255 23:255 32 0] 3 [1 2] [0 2 0 0->16] [0 0 0 0->0]
r 15.074341168 _13_ RTR  --- 4 DSR 68 [0 ffffffff 11 800] ------- [0:255 23:255 32 0] 3 [1 2] [0 2 0 0->16] [0 0 0 0->0]
r 15.074341168 _23_ RTR  --- 4 DSR 68 [0 ffffffff 11 800] ------- [0:255 23:255 32 0] 3 [1 2] [0 2 0 0->16] [0 0 0 0->0]
r 15.074341363 _7_ RTR  --- 4 DSR 68 [0 ffffffff 11 800] ------- [0:255 23:255 32 0] 3 [1 2] [0 2 0 0->16] [0 0 0 0->0]
r 15.074341363 _15_ RTR  --- 4 DSR 68 [0 ffffffff 11 800] ------- [0:255 23:255 32 0] 3 [1 2] [0 2 0 0->16] [0 0 0 0->0]
r 15.074341363 _19_ RTR  --- 4 DSR 68 [0 ffffffff 11 800] ------- [0:255 23:255 32 0] 3 [1 2] [0 2 0 0->16] [0 0 0 0->0]
r 15.074341442 _6_ RTR  --- 4 DSR 68 [0 ffffffff 11 800] ------- [0:255 23:255 32 0] 3 [1 2] [0 2 0 0->16] [0 0 0 0->0]
r 15.074341442 _20_ RTR  --- 4 DSR 68 [0 ffffffff 11 800] ------- [0:255 23:255 32 0] 3 [1 2] [0 2 0 0->16] [0 0 0 0->0]
r 15.074341442 _10_ RTR  --- 4 DSR 68 [0 ffffffff 11 800] ------- [0:255 23:255 32 0] 3 [1 2] [0 2 0 0->16] [0 0 0 0->0]
r 15.074341442 _8_ RTR  --- 4 DSR 68 [0 ffffffff 11 800] ------- [0:255 23:255 32 0] 3 [1 2] [0 2 0 0->16] [0 0 0 0->0]
r 15.074341442 _14_ RTR  --- 4 DSR 68 [0 ffffffff 11 800] ------- [0:255 23:255 32 0] 3 [1 2] [0 2 0 0->16] [0 0 0 0->0]
r 15.074341442 _24_ RTR  --- 4 DSR 68 [0 ffffffff 11 800] ------- [0:255 23:255 32 0] 3 [1 2] [0 2 0 0->16] [0 0 0 0->0]
f 15.074468184 _4_ RTR  --- 4 DSR 68 [0 ffffffff 7 800] ------- [0:255 23:255 32 0] 3 [1 2] [0 2 0 0->16] [0 0 0 0->0]
f 15.074944627 _15_ RTR  --- 4 DSR 68 [0 ffffffff 6 800] ------- [0:255 23:255 32 0] 3 [1 2] [0 2 0 0->16] [0 0 0 0->0]
f 15.075038574 _22_ RTR  --- 4 DSR 92 [0 ffffffff d 800] ------- [0:255 23:255 32 0] 4 [1 2] [0 2 0 0->16] [0 0 0 0->0]
r 15.075351501 _6_ RTR  --- 4 DSR 48 [0 ffffffff b 800] ------- [0:255 23:255 32 0] 2 [1 2] [0 2 0 0->16] [0 0 0 0->0]
r 15.075351501 _10_ RTR  --- 4 DSR 48 [0 ffffffff b 800] ------- [0:255 23:255 32 0] 2 [1 2] [0 2 0 0->16] [0 0 0 0->0]
r 15.075351501 _16_ RTR  --- 4 DSR 48 [0 ffffffff b 800] ------- [0:255 23:255 32 0] 2 [1 2] [0 2 0 0->16] [0 0 0 0->0]
r 15.075351639 _15_ RTR  --- 4 DSR 48 [0 ffffffff b 800] ------- [0:255 23:255 32 0] 2 [1 2] [0 2 0 0->16] [0 0 0 0->0]
r 15.075351639 _5_ RTR  --- 4 DSR 48 [0 ffffffff b 800] ------- [0:255 23:255 32 0] 2 [1 2] [0 2 0 0->16] [0 0 0 0->0]
r 15.075351835 _21_ RTR  --- 4 DSR 48 [0 ffffffff b 800] ------- [0:255 23:255 32 0] 2 [1 2] [0 2 0 0->16] [0 0 0 0->0]
r 15.075351913 _20_ RTR  --- 4 DSR 48 [0 ffffffff b 800] ------- [0:255 23:255 32 0] 2 [1 2] [0 2 0 0->16] [0 0 0 0->0]
r 15.075511775 _3_ RTR  --- 4 DSR 68 [0 ffffffff 8 800] ------- [0:255 23:255 32 0] 3 [1 2] [0 2 0 0->16] [0 0 0 0->0]
r 15.075511775 _13_ RTR  --- 4 DSR 68 [0 ffffffff 8 800] ------- [0:255 23:255 32 0] 3 [1 2] [0 2 0 0->16] [0 0 0 0->0]
r 15.075511775 _9_ RTR  --- 4 DSR 68 [0 ffffffff 8 800] ------- [0:255 23:255 32 0] 3 [1 2] [0 2 0 0->16] [0 0 0 0->0]
r 15.075511913 _4_ RTR  --- 4 DSR 68 [0 ffffffff 8 800] ------- [0:255 23:255 32 0] 3 [1 2] [0 2 0 0->16] [0 0 0 0->0]
r 15.075511913 _14_ RTR  --- 4 DSR 68 [0 ffffffff 8 800] ------- [0:255 23:255 32 0] 3 [1 2] [0 2 0 0->16] [0 0 0 0->0]
r 15.075512187 _11_ RTR  --- 4 DSR 68 [0 ffffffff 8 800] ------- [0:255 23:255 32 0] 3 [1 2] [0 2 0 0->16] [0 0 0 0->0]
f 15.075621689 _3_ RTR  --- 4 DSR 68 [0 ffffffff 6 800] ------- [0:255 23:255 32 0] 3 [1 2] [0 2 0 0->16] [0 0 0 0->0]
s 15.075634461 _23_ RTR  --- 7 DSR 60 [0 0 0 0] ------- [23:255 0:255 254 13] 4 [0 2] [1 2 4 0->23] [0 0 0 0->0]
s 15.075718741 _23_ RTR  --- 8 DSR 60 [0 0 0 0] ------- [23:255 0:255 254 16] 4 [0 2] [1 2 4 0->23] [0 0 0 0->0]
f 15.076210469 _14_ RTR  --- 4 DSR 68 [0 ffffffff 7 800] ------- [0:255 23:255 32 0] 3 [1 2] [0 2 0 0->16] [0 0 0 0->0]
f 15.076725330 _20_ RTR  --- 4 DSR 68 [0 ffffffff a 800] ------- [0:255 23:255 32 0] 3 [1 2] [0 2 0 0->16] [0 0 0 0->0]
r 15.076746444 _2_ RTR  --- 4 DSR 68 [0 ffffffff 3 800] ------- [0:255 23:255 32 0] 3 [1 2] [0 2 0 0->16] [0 0 0 0->0]
r 15.076746444 _8_ RTR  --- 4 DSR 68 [0 ffffffff 3 800] ------- [0:255 23:255 32 0] 3 [1 2] [0 2 0 0->16] [0 0 0 0->0]
r 15.076746444 _4_ RTR  --- 4 DSR 68 [0 ffffffff 3 800] ------- [0:255 23:255 32 0] 3 [1 2] [0 2 0 0->16] [0 0 0 0->0]
r 15.076746582 _7_ RTR  --- 4 DSR 68 [0 ffffffff 3 800] ------- [0:255 23:255 32 0] 3 [1 2] [0 2 0 0->16] [0 0 0 0->0]
r 15.076746582 _9_ RTR  --- 4 DSR 68 [0 ffffffff 3 800] ------- [0:255 23:255 32 0] 3 [1 2] [0 2 0 0->16] [0 0 0 0->0]
r 15.076746777 _1_ RTR  --- 4 DSR 68 [0 ffffffff 3 800] ------- [0:255 23:255 32 0] 3 [1 2] [0 2 0 0->16] [0 0 0 0->0]
r 15.076746777 _13_ RTR  --- 4 DSR 68 [0 ffffffff 3 800] ------- [0:255 23:255 32 0] 3 [1 2] [0 2 0 0->16] [0 0 0 0->0]
r 15.076746856 _12_ RTR  --- 4 DSR 68 [0 ffffffff 3 800] ------- [0:255 23:255 32 0] 3 [1 2] [0 2 0 0->16] [0 0 0 0->0]
r 15.076746856 _6_ RTR  --- 4 DSR 68 [0 ffffffff 3 800] ------- [0:255 23:255 32 0] 3 [1 2] [0 2 0 0->16] [0 0 0 0->0]
r 15.076746856 _14_ RTR  --- 4 DSR 68 [0 ffffffff 3 800] ------- [0:255 23:255 32 0] 3 [1 2] [0 2 0 0->16] [0 0 0 0->0]
r 15.077837189 _7_ RTR  --- 4 DSR 68 [0 ffffffff c 800] ------- [0:255 23:255 32 0] 3 [1 2] [0 2 0 0->16] [0 0 0 0->0]
r 15.077837189 _11_ RTR  --- 4 DSR 68 [0 ffffffff c 800] ------- [0:255 23:255 32 0] 3 [1 2] [0 2 0 0->16] [0 0 0 0->0]
r 15.077837189 _17_ RTR  --- 4 DSR 68 [0 ffffffff c 800] ------- [0:255 23:255 32 0] 3 [1 2] [0 2 0 0->16] [0 0 0 0->0]
r 15.077837189 _13_ RTR  --- 4 DSR 68 [0 ffffffff c 800] ------- [0:255 23:255 32 0] 3 [1 2] [0 2 0 0->16] [0 0 0 0->0]
r 15.077837327 _16_ RTR  --- 4 DSR 68 [0 ffffffff c 800] ------- [0:255 23:255 32 0] 3 [1 2] [0 2 0 0->16] [0 0 0 0->0]
r 15.077837327 _6_ RTR  --- 4 DSR 68 [0 ffffffff c 800] ------- [0:255 23:255 32 0] 3 [1 2] [0 2 0 0->16] [0 0 0 0->0]
r 15.077837327 _8_ RTR  --- 4 DSR 68 [0 ffffffff c 800] ------- [0:255 23:255 32 0] 3 [1 2] [0 2 0 0->16] [0 0 0 0->0]
r 15.077837327 _18_ RTR  --- 4 DSR 68 [0 ffffffff c 800] ------- [0:255 23:255 32 0] 3 [1 2] [0 2 0 0->16] [0 0 0 0->0]
r 15.077837523 _2_ RTR  --- 4 DSR 68 [0 ffffffff c 800] ------- [0:255 23:255 32 0] 3 [1 2] [0 2 0 0->16] [0 0 0 0->0]
r 15.077837523 _10_ RTR  --- 4 DSR 68 [0 ffffffff c 800] ------- [0:255 23:255 32 0] 3 [1 2] [0 2 0 0->16] [0 0 0 0->0]
r 15.077837523 _22_ RTR  --- 4 DSR 68 [0 ffffffff c 800] ------- [0:255 23:255 32 0] 3 [1 2] [0 2 0 0->16] [0 0 0 0->0]
r 15.077837523 _14_ RTR  --- 4 DSR 68 [0 ffffffff c 800] ------- [0:255 23:255 32 0] 3 [1 2] [0 2 0 0->16] [0 0 0 0->0]
r 15.077837601 _21_ RTR  --- 4 DSR 68 [0 ffffffff c 800] ------- [0:255 23:255 32 0] 3 [1 2] [0 2 0 0->16] [0 0 0 0->0]
r 15.077837601 _1_ RTR  --- 4 DSR 68 [0 ffffffff c 800] ------- [0:255 23:255 32 0] 3 [1 2] [0 2 0 0->16] [0 0 0 0->0]
r 15.077837601 _15_ RTR  --- 4 DSR 68 [0 ffffffff c 800] ------- [0:255 23:255 32 0] 3 [1 2] [0 2 0 0->16] [0 0 0 0->0]
r 15.077837601 _5_ RTR  --- 4 DSR 68 [0 ffffffff c 800] ------- [0:255 23:255 32 0] 3 [1 2] [0 2 0 0->16] [0 0 0 0->0]
r 15.077837601 _3_ RTR  --- 4 DSR 68 [0 ffffffff c 800] ------- [0:255 23:255 32 0] 3 [1 2] [0 2 0 0->16] [0 0 0 0->0]
r 15.077837601 _23_ RTR  --- 4 DSR 68 [0 ffffffff c 800] ------- [0:255 23:255 32 0] 3 [1 2] [0 2 0 0->16] [0 0 0 0->0]
r 15.077837601 _9_ RTR  --- 4 DSR 68 [0 ffffffff c 800] ------- [0:255 23:255 32 0] 3 [1 2] [0 2 0 0->16] [0 0 0 0->0]
r 15.077837601 _19_ RTR  --- 4 DSR 68 [0 ffffffff c 800] ------- [0:255 23:255 32 0] 3 [1 2] [0 2 0 0->16] [0 0 0 0->0]
s 15.078692195 _23_ RTR  --- 9 DSR 60 [0 0 0 0] ------- [23:255 0:255 254 21] 4 [0 2] [1 2 4 0->23] [0 0 0 0->0]
r 15.078727935 _0_ RTR  --- 4 DSR 48 [0 ffffffff 5 800] ------- [0:255 23:255 32 0] 2 [1 2] [0 2 0 0->16] [0 0 0 0->0]
r 15.078727935 _10_ RTR  --- 4 DSR 48 [0 ffffffff 5 800] ------- [0:255 23:255 32 0] 2 [1 2] [0 2 0 0->16] [0 0 0 0->0]
r 15.078727935 _6_ RTR  --- 4 DSR 48 [0 ffffffff 5 800] ------- [0:255 23:255 32 0] 2 [1 2] [0 2 0 0->16] [0 0 0 0->0]
r 15.078728073 _1_ RTR  --- 4 DSR 48 [0 ffffffff 5 800] ------- [0:255 23:255 32 0] 2 [1 2] [0 2 0 0->16] [0 0 0 0->0]
r 15.078728073 _11_ RTR  --- 4 DSR 48 [0 ffffffff 5 800] ------- [0:255 23:255 32 0] 2 [1 2] [0 2 0 0->16] [0 0 0 0->0]
r 15.078728268 _15_ RTR  --- 4 DSR 48 [0 ffffffff 5 800] ------- [0:255 23:255 32 0] 2 [1 2] [0 2 0 0->16] [0 0 0 0->0]
r 15.078728268 _7_ RTR  --- 4 DSR 48 [0 ffffffff 5 800] ------- [0:255 23:255 32 0] 2 [1 2] [0 2 0 0->16] [0 0 0 0->0]
r 15.078728347 _16_ RTR  --- 4 DSR 48 [0 ffffffff 5 800] ------- [0:255 23:255 32 0] 2 [1 2] [0 2 0 0->16] [0 0 0 0->0]
r 15.078728347 _2_ RTR  --- 4 DSR 48 [0 ffffffff 5 800] ------- [0:255 23:255 32 0] 2 [1 2] [0 2 0 0->16] [0 0 0 0->0]
r 15.078728347 _12_ RTR  --- 4 DSR 48 [0 ffffffff 5 800] ------- [0:255 23:255 32 0] 2 [1 2] [0 2 0 0->16] [0 0 0 0->0]
f 15.079728255 _19_ RTR  --- 4 DSR 92 [0 ffffffff d 800] ------- [0:255 23:255 32 0] 4 [1 2] [0 2 0 0->16] [0 0 0 0->0]
r 15.080138601 _10_ RTR  --- 4 DSR 68 [0 ffffffff f 800] ------- [0:255 23:255 32 0] 3 [1 2] [0 2 0 0->16] [0 0 0 0->0]
r 15.080138601 _20_ RTR  --- 4 DSR 68 [0 ffffffff f 800] ------- [0:255 23:255 32 0] 3 [1 2] [0 2 0 0->16] [0 0 0 0->0]
r 15.080138601 _16_ RTR  --- 4 DSR 68 [0 ffffffff f 800] ------- [0:255 23:255 32 0] 3 [1 2] [0 2 0 0->16] [0 0 0 0->0]
r 15.080138739 _11_ RTR  --- 4 DSR 68 [0 ffffffff f 800] ------- [0:255 23:255 32 0] 3 [1 2] [0 2 0 0->16] [0 0 0 0->0]
r 15.080138739 _21_ RTR  --- 4 DSR 68 [0 ffffffff f 800] ------- [0:255 23:255 32 0] 3 [1 2] [0 2 0 0->16] [0 0 0 0->0]
r 15.080138935 _5_ RTR  --- 4 DSR 68 [0 ffffffff f 800] ------- [0:255 23:255 32 0] 3 [1 2] [0 2 0 0->16] [0 0 0 0->0]
r 15.080138935 _17_ RTR  --- 4 DSR 68 [0 ffffffff f 800] ------- [0:255 23:255 32 0] 3 [1 2] [0 2 0 0->16] [0 0 0 0->0]
r 15.080139013 _6_ RTR  --- 4 DSR 68 [0 ffffffff f 800] ------- [0:255 23:255 32 0] 3 [1 2] [0 2 0 0->16] [0 0 0 0->0]
r 15.080139013 _12_ RTR  --- 4 DSR 68 [0 ffffffff f 800] ------- [0:255 23:255 32 0] 3 [1 2] [0 2 0 0->16] [0 0 0 0->0]
r 15.080139013 _22_ RTR  --- 4 DSR 68 [0 ffffffff f 800] ------- [0:255 23:255 32 0] 3 [1 2] [0 2 0 0->16] [0 0 0 0->0]
f 15.080281837 _24_ RTR  --- 4 DSR 92 [0 ffffffff d 800] ------- [0:255 23:255 32 0] 4 [1 2] [0 2 0 0->16] [0 0 0 0->0]
r 15.081681347 _17_ RTR  --- 4 DSR 92 [0 ffffffff 16 800] ------- [0:255 23:255 32 0] 4 [1 2] [0 2 0 0->16] [0 0 0 0->0]
r 15.081681347 _21_ RTR  --- 4 DSR 92 [0 ffffffff 16 800] ------- [0:255 23:255 32 0] 4 [1 2] [0 2 0 0->16] [0 0 0 0->0]
r 15.081681347 _23_ RTR  --- 4 DSR 92 [0 ffffffff 16 800] ------- [0:255 23:255 32 0] 4 [1 2] [0 2 0 0->16] [0 0 0 0->0]
r 15.081681485 _16_ RTR  --- 4 DSR 92 [0 ffffffff 16 800] ------- [0:255 23:255 32 0] 4 [1 2] [0 2 0 0->16] [0 0 0 0->0]
r 15.081681485 _18_ RTR  --- 4 DSR 92 [0 ffffffff 16 800] ------- [0:255 23:255 32 0] 4 [1 2] [0 2 0 0->16] [0 0 0 0->0]
r 15.081681680 _12_ RTR  --- 4 DSR 92 [0 ffffffff 16 800] ------- [0:255 23:255 32 0] 4 [1 2] [0 2 0 0->16] [0 0 0 0->0]
r 15.081681680 _20_ RTR  --- 4 DSR 92 [0 ffffffff 16 800] ------- [0:255 23:255 32 0] 4 [1 2] [0 2 0 0->16] [0 0 0 0->0]
r 15.081681680 _24_ RTR  --- 4 DSR 92 [0 ffffffff 16 800] ------- [0:255 23:255 32 0] 4 [1 2] [0 2 0 0->16] [0 0 0 0->0]
r 15.081681759 _11_ RTR  --- 4 DSR 92 [0 ffffffff 16 800] ------- [0:255 23:255 32 0] 4 [1 2] [0 2 0 0->16] [0 0 0 0->0]
r 15.081681759 _15_ RTR  --- 4 DSR 92 [0 ffffffff 16 800] ------- [0:255 23:255 32 0] 4 [1 2] [0 2 0 0->16] [0 0 0 0->0]
r 15.081681759 _13_ RTR  --- 4 DSR 92 [0 ffffffff 16 800] ------- [0:255 23:255 32 0] 4 [1 2] [0 2 0 0->16] [0 0 0 0->0]
r 15.081681759 _19_ RTR  --- 4 DSR 92 [0 ffffffff 16 800] ------- [0:255 23:255 32 0] 4 [1 2] [0 2 0 0->16] [0 0 0 0->0]
s 15.082332631 _23_ RTR  --- 10 DSR 60 [0 0 0 0] ------- [23:255 0:255 254 17] 4 [0 2] [1 2 4 0->23] [0 0 0 0->0]
r 15.082772013 _15_ RTR  --- 4 DSR 68 [0 ffffffff 14 800] ------- [0:255 23:255 32 0] 3 [1 2] [0 2 0 0->16] [0 0 0 0->0]
r 15.082772013 _21_ RTR  --- 4 DSR 68 [0 ffffffff 14 800] ------- [0:255 23:255 32 0] 3 [1 2] [0 2 0 0->16] [0 0 0 0->0]
r 15.082772151 _16_ RTR  --- 4 DSR 68 [0 ffffffff 14 800] ------- [0:255 23:255 32 0] 3 [1 2] [0 2 0 0->16] [0 0 0 0->0]
r 15.082772347 _10_ RTR  --- 4 DSR 68 [0 ffffffff 14 800] ------- [0:255 23:255 32 0] 3 [1 2] [0 2 0 0->16] [0 0 0 0->0]
r 15.082964013 _19_ RTR  --- 4 DSR 92 [0 ffffffff 18 800] ------- [0:255 23:255 32 0] 4 [1 2] [0 2 0 0->16] [0 0 0 0->0]