n -t * -s 0  -x 100 -y 100 -Z 0 -z 30  -v circle -c black
n -t * -s 1  -x 200 -y 100 -Z 0 -z 30  -v circle -c black
n -t * -s 2  -x 300 -y 100 -Z 0 -z 30  -v circle -c black
n -t * -s 3  -x 400 -y 100 -Z 0 -z 30  -v circle -c black
n -t * -s 4  -x 500 -y 100 -Z 0 -z 30  -v circle -c black
n -t * -s 5  -x 100 -y 200 -Z 0 -z 30  -v circle -c black
n -t * -s 6  -x 200 -y 200 -Z 0 -z 30  -v circle -c black
n -t * -s 7  -x 300 -y 200 -Z 0 -z 30  -v circle -c black
n -t * -s 8  -x 400 -y 200 -Z 0 -z 30  -v circle -c black
n -t * -s 9  -x 500 -y 200 -Z 0 -z 30  -v circle -c black
n -t * -s 10  -x 100 -y 300 -Z 0 -z 30  -v circle -c black
n -t * -s 11  -x 200 -y 300 -Z 0 -z 30  -v circle -c black
n -t * -s 12  -x 300 -y 300 -Z 0 -z 30  -v circle -c black
n -t * -s 13  -x 400 -y 300 -Z 0 -z 30  -v circle -c black
n -t * -s 14  -x 500 -y 300 -Z 0 -z 30  -v circle -c black
n -t * -s 15  -x 100 -y 400 -Z 0 -z 30  -v circle -c black
n -t * -s 16  -x 200 -y 400 -Z 0 -z 30  -v circle -c black
n -t * -s 17  -x 300 -y 400 -Z 0 -z 30  -v circle -c black
n -t * -s 18  -x 400 -y 400 -Z 0 -z 30  -v circle -c black
n -t * -s 19  -x 500 -y 400 -Z 0 -z 30  -v circle -c black
n -t * -s 20  -x 100 -y 500 -Z 0 -z 30  -v circle -c black
n -t * -s 21  -x 200 -y 500 -Z 0 -z 30  -v circle -c black
n -t * -s 22  -x 300 -y 500 -Z 0 -z 30  -v circle -c black
n -t * -s 23  -x 400 -y 500 -Z 0 -z 30  -v circle -c black
n -t * -s 24  -x 500 -y 500 -Z 0 -z 30  -v circle -c black
V -t * -v 1.0a5 -a 0
W -t * -x 500 -y 500
A -t * -n 1 -p 0 -o 0xffffffff -c 31 -a 1
A -t * -h 1 -m 2147483647 -s 0
+ -t 15.000000000 -s 0 -d -1 -p cbr -e 512 -c 2 -a 0 -i 0 -k AGT 
- -t 15.000000000 -s 0 -d -1 -p cbr -e 512 -c 2 -a 0 -i 0 -k AGT
h -t 15.000000000 -s 0 -d -1 -p cbr -e 512 -c 2 -a 0 -i 0 -k AGT
+ -t 15.008890119 -s 0 -d -1 -p DSR -e 32 -c 2 -a 0 -i 1 -k RTR 
- -t 15.008890119 -s 0 -d -1 -p DSR -e 32 -c 2 -a 0 -i 1 -k RTR
h -t 15.008890119 -s 0 -d -1 -p DSR -e 32 -c 2 -a 0 -i 1 -k RTR
+ -t 15.059350291 -s 0 -d -1 -p cbr -e 512 -c 2 -a 0 -i 3 -k AGT 
- -t 15.059350291 -s 0 -d -1 -p cbr -e 512 -c 2 -a 0 -i 3 -k AGT
h -t 15.059350291 -s 0 -d -1 -p cbr -e 512 -c 2 -a 0 -i 3 -k AGT
+ -t 15.060942607 -s 0 -d -1 -p DSR -e 32 -c 2 -a 0 -i 4 -k RTR 
- -t 15.060942607 -s 0 -d -1 -p DSR -e 32 -c 2 -a 0 -i 4 -k RTR
h -t 15.060942607 -s 0 -d -1 -p DSR -e 32 -c 2 -a 0 -i 4 -k RTR
+ -t 15.064492048 -s 6 -d -1 -p DSR -e 48 -c 2 -a 0 -i 4 -k RTR 
- -t 15.064492048 -s 6 -d -1 -p DSR -e 48 -c 2 -a 0 -i 4 -k RTR
h -t 15.064492048 -s 6 -d -1 -p DSR -e 48 -c 2 -a 0 -i 4 -k RTR
+ -t 15.065756319 -s 10 -d -1 -p DSR -e 48 -c 2 -a 0 -i 4 -k RTR 
- -t 15.065756319 -s 10 -d -1 -p DSR -e 48 -c 2 -a 0 -i 4 -k RTR
h -t 15.065756319 -s 10 -d -1 -p DSR -e 48 -c 2 -a 0 -i 4 -k RTR
+ -t 15.066079032 -s 1 -d -1 -p DSR -e 48 -c 2 -a 0 -i 4 -k RTR 
- -t 15.066079032 -s 1 -d -1 -p DSR -e 48 -c 2 -a 0 -i 4 -k RTR
h -t 15.066079032 -s 1 -d -1 -p DSR -e 48 -c 2 -a 0 -i 4 -k RTR
+ -t 15.067486570 -s 21 -d -1 -p DSR -e 68 -c 2 -a 0 -i 4 -k RTR 
- -t 15.067486570 -s 21 -d -1 -p DSR -e 68 -c 2 -a 0 -i 4 -k RTR
h -t 15.067486570 -s 21 -d -1 -p DSR -e 68 -c 2 -a 0 -i 4 -k RTR
+ -t 15.067657466 -s 16 -d -1 -p DSR -e 68 -c 2 -a 0 -i 4 -k RTR 
- -t 15.067657466 -s 16 -d -1 -p DSR -e 68 -c 2 -a 0 -i 4 -k RTR
h -t 15.067657466 -s 16 -d -1 -p DSR -e 68 -c 2 -a 0 -i 4 -k RTR
+ -t 15.068008068 -s 7 -d -1 -p DSR -e 48 -c 2 -a 0 -i 4 -k RTR 
- -t 15.068008068 -s 7 -d -1 -p DSR -e 48 -c 2 -a 0 -i 4 -k RTR
h -t 15.068008068 -s 7 -d -1 -p DSR -e 48 -c 2 -a 0 -i 4 -k RTR
+ -t 15.068087922 -s 17 -d -1 -p DSR -e 68 -c 2 -a 0 -i 4 -k RTR 
- -t 15.068087922 -s 17 -d -1 -p DSR -e 68 -c 2 -a 0 -i 4 -k RTR
h -t 15.068087922 -s 17 -d -1 -p DSR -e 68 -c 2 -a 0 -i 4 -k RTR
+ -t 15.068587991 -s 13 -d -1 -p DSR -e 68 -c 2 -a 0 -i 4 -k RTR 
- -t 15.068587991 -s 13 -d -1 -p DSR -e 68 -c 2 -a 0 -i 4 -k RTR
h -t 15.068587991 -s 13 -d -1 -p DSR -e 68 -c 2 -a 0 -i 4 -k RTR
+ -t 15.068877523 -s 2 -d -1 -p DSR -e 48 -c 2 -a 0 -i 4 -k RTR 
- -t 15.068877523 -s 2 -d -1 -p DSR -e 48 -c 2 -a 0 -i 4 -k RTR
h -t 15.068877523 -s 2 -d -1 -p DSR -e 48 -c 2 -a 0 -i 4 -k RTR
+ -t 15.069863345 -s 11 -d -1 -p DSR -e 48 -c 2 -a 0 -i 4 -k RTR 
- -t 15.069863345 -s 11 -d -1 -p DSR -e 48 -c 2 -a 0 -i 4 -k RTR
h -t 15.069863345 -s 11 -d -1 -p DSR -e 48 -c 2 -a 0 -i 4 -k RTR
+ -t 15.071211265 -s 5 -d -1 -p DSR -e 48 -c 2 -a 0 -i 4 -k RTR 
- -t 15.071211265 -s 5 -d -1 -p DSR -e 48 -c 2 -a 0 -i 4 -k RTR
h -t 15.071211265 -s 5 -d -1 -p DSR -e 48 -c 2 -a 0 -i 4 -k RTR
+ -t 15.071253759 -s 18 -d -1 -p DSR -e 68 -c 2 -a 0 -i 4 -k RTR 
- -t 15.071253759 -s 18 -d -1 -p DSR -e 68 -c 2 -a 0 -i 4 -k RTR
h -t 15.071253759 -s 18 -d -1 -p DSR -e 68 -c 2 -a 0 -i 4 -k RTR
+ -t 15.072031290 -s 12 -d -1 -p DSR -e 68 -c 2 -a 0 -i 4 -k RTR 
- -t 15.072031290 -s 12 -d -1 -p DSR -e 68 -c 2 -a 0 -i 4 -k RTR
h -t 15.072031290 -s 12 -d -1 -p DSR -e 68 -c 2 -a 0 -i 4 -k RTR
+ -t 15.072536562 -s 9 -d -1 -p DSR -e 68 -c 2 -a 0 -i 4 -k RTR 
- -t 15.072536562 -s 9 -d -1 -p DSR -e 68 -c 2 -a 0 -i 4 -k RTR
h -t 15.072536562 -s 9 -d -1 -p DSR -e 68 -c 2 -a 0 -i 4 -k RTR
+ -t 15.073148831 -s 8 -d -1 -p DSR -e 68 -c 2 -a 0 -i 4 -k RTR 
- -t 15.073148831 -s 8 -d -1 -p DSR -e 68 -c 2 -a 0 -i 4 -k RTR
h -t 15.073148831 -s 8 -d -1 -p DSR -e 68 -c 2 -a 0 -i 4 -k RTR
+ -t 15.074468184 -s 4 -d -1 -p DSR -e 68 -c 2 -a 0 -i 4 -k RTR 
- -t 15.074468184 -s 4 -d -1 -p DSR -e 68 -c 2 -a 0 -i 4 -k RTR
h -t 15.074468184 -s 4 -d -1 -p DSR -e 68 -c 2 -a 0 -i 4 -k RTR
+ -t 15.074944627 -s 15 -d -1 -p DSR -e 68 -c 2 -a 0 -i 4 -k RTR 
- -t 15.074944627 -s 15 -d -1 -p DSR -e 68 -c 2 -a 0 -i 4 -k RTR
h -t 15.074944627 -s 15 -d -1 -p DSR -e 68 -c 2 -a 0 -i 4 -k RTR
+ -t 15.075038574 -s 22 -d -1 -p DSR -e 92 -c 2 -a 0 -i 4 -k RTR 
- -t 15.075038574 -s 22 -d -1 -p DSR -e 92 -c 2 -a 0 -i 4 -k RTR
h -t 15.075038574 -s 22 -d -1 -p DSR -e 92 -c 2 -a 0 -i 4 -k RTR
+ -t 15.075621689 -s 3 -d -1 -p DSR -e 68 -c 2 -a 0 -i 4 -k RTR 
- -t 15.075621689 -s 3 -d -1 -p DSR -e 68 -c 2 -a 0 -i 4 -k RTR
h -t 15.075621689 -s 3 -d -1 -p DSR -e 68 -c 2 -a 0 -i 4 -k RTR
+ -t 15.075634461 -s 23 -d 13 -p DSR -e 60 -c 2 -a 0 -i 7 -k RTR 
- -t 15.075634461 -s 23 -d 13 -p DSR -e 60 -c 2 -a 0 -i 7 -k RTR
h -t 15.075634461 -s 23 -d 13 -p DSR -e 60 -c 2 -a 0 -i 7 -k RTR
+ -t 15.075718741 -s 23 -d 16 -p DSR -e 60 -c 2 -a 0 -i 8 -k RTR 
- -t 15.075718741 -s 23 -d 16 -p DSR -e 60 -c 2 -a 0 -i 8 -k RTR
h -t 15.075718741 -s 23 -d 16 -p DSR -e 60 -c 2 -a 0 -i 8 -k RTR
+ -t 15.076210469 -s 14 -d -1 -p DSR -e 68 -c 2 -a 0 -i 4 -k RTR 
- -t 15.076210469 -s 14 -d -1 -p DSR -e 68 -c 2 -a 0 -i 4 -k RTR
h -t 15.076210469 -s 14 -d -1 -p DSR -e 68 -c 2 -a 0 -i 4 -k RTR
+ -t 15.076725330 -s 20 -d -1 -p DSR -e 68 -c 2 -a 0 -i 4 -k RTR 
- -t 15.076725330 -s 20 -d -1 -p DSR -e 68 -c 2 -a 0 -i 4 -k RTR
h -t 15.076725330 -s 20 -d -1 -p DSR -e 68 -c 2 -a 0 -i 4 -k RTR
+ -t 15.078692195 -s 23 -d 21 -p DSR -e 60 -c 2 -a 0 -i 9 -k RTR 
- -t 15.078692195 -s 23 -d 21 -p DSR -e 60 -c 2 -a 0 -i 9 -k RTR
h -t 15.078692195 -s 23 -d 21 -p DSR -e 60 -c 2 -a 0 -i 9 -k RTR
+ -t 15.079728255 -s 19 -d -1 -p DSR -e 92 -c 2 -a 0 -i 4 -k RTR 
- -t 15.079728255 -s 19 -d -1 -p DSR -e 92 -c 2 -a 0 -i 4 -k RTR
h -t 15.079728255 -s 19 -d -1 -p DSR -e 92 -c 2 -a 0 -i 4 -k RTR
+ -t 15.080281837 -s 24 -d -1 -p DSR -e 92 -c 2 -a 0 -i 4 -k RTR 
- -t 15.080281837 -s 24 -d -1 -p DSR -e 92 -c 2 -a 0 -i 4 -k RTR
h -t 15.080281837 -s 24 -d -1 -p DSR -e 92 -c 2 -a 0 -i 4 -k RTR
+ -t 15.082332631 -s 23 -d 17 -p DSR -e 60 -c 2 -a 0 -i 10 -k RTR 
- -t 15.082332631 -s 23 -d 17 -p DSR -e 60 -c 2 -a 0 -i 10 -k RTR
h -t 15.082332631 -s 23 -d 17 -p DSR -e 60 -c 2 -a 0 -i 10 -k RTR
+ -t 15.085924093 -s 23 -d 22 -p DSR -e 68 -c 2 -a 0 -i 12 -k RTR 
- -t 15.085924093 -s 23 -d 22 -p DSR -e 68 -c 2 -a 0 -i 12 -k RTR
h -t 15.085924093 -s 23 -d 22 -p DSR -e 68 -c 2 -a 0 -i 12 -k RTR
+ -t 15.085997334 -s 23 -d 14 -p DSR -e 60 -c 2 -a 0 -i 14 -k RTR 
- -t 15.085997334 -s 23 -d 14 -p DSR -e 60 -c 2 -a 0 -i 14 -k RTR
h -t 15.085997334 -s 23 -d 14 -p DSR -e 60 -c 2 -a 0 -i 14 -k RTR
+ -t 15.086493112 -s 23 -d 12 -p DSR -e 60 -c 2 -a 0 -i 11 -k RTR 
- -t 15.086493112 -s 23 -d 12 -p DSR -e 60 -c 2 -a 0 -i 11 -k RTR
h -t 15.086493112 -s 23 -d 12 -p DSR -e 60 -c 2 -a 0 -i 11 -k RTR
+ -t 15.086901975 -s 13 -d 6 -p DSR -e 60 -c 2 -a 0 -i 7 -k RTR 
- -t 15.086901975 -s 13 -d 6 -p DSR -e 60 -c 2 -a 0 -i 7 -k RTR
h -t 15.086901975 -s 13 -d 6 -p DSR -e 60 -c 2 -a 0 -i 7 -k RTR
+ -t 15.088920878 -s 12 -d 6 -p DSR -e 60 -c 2 -a 0 -i 11 -k RTR 
- -t 15.088920878 -s 12 -d 6 -p DSR -e 60 -c 2 -a 0 -i 11 -k RTR
h -t 15.088920878 -s 12 -d 6 -p DSR -e 60 -c 2 -a 0 -i 11 -k RTR
+ -t 15.091868774 -s 23 -d 24 -p DSR -e 68 -c 2 -a 0 -i 13 -k RTR 
- -t 15.091868774 -s 23 -d 24 -p DSR -e 68 -c 2 -a 0 -i 13 -k RTR
h -t 15.091868774 -s 23 -d 24 -p DSR -e 68 -c 2 -a 0 -i 13 -k RTR
+ -t 15.093270502 -s 6 -d 0 -p DSR -e 60 -c 2 -a 0 -i 7 -k RTR 
- -t 15.093270502 -s 6 -d 0 -p DSR -e 60 -c 2 -a 0 -i 7 -k RTR
h -t 15.093270502 -s 6 -d 0 -p DSR -e 60 -c 2 -a 0 -i 7 -k RTR
+ -t 15.093710181 -s 23 -d 18 -p DSR -e 60 -c 2 -a 0 -i 15 -k RTR 
- -t 15.093710181 -s 23 -d 18 -p DSR -e 60 -c 2 -a 0 -i 15 -k RTR
h -t 15.093710181 -s 23 -d 18 -p DSR -e 60 -c 2 -a 0 -i 15 -k RTR
+ -t 15.095388387 -s 6 -d 0 -p DSR -e 60 -c 2 -a 0 -i 11 -k RTR 
- -t 15.095388387 -s 6 -d 0 -p DSR -e 60 -c 2 -a 0 -i 11 -k RTR
h -t 15.095388387 -s 6 -d 0 -p DSR -e 60 -c 2 -a 0 -i 11 -k RTR
+ -t 15.097625802 -s 0 -d 6 -p cbr -e 556 -c 2 -a 0 -i 0 -k RTR 
- -t 15.097625802 -s 0 -d 6 -p cbr -e 556 -c 2 -a 0 -i 0 -k RTR
h -t 15.097625802 -s 0 -d 6 -p cbr -e 556 -c 2 -a 0 -i 0 -k RTR
+ -t 15.099770615 -s 23 -d 19 -p DSR -e 68 -c 2 -a 0 -i 16 -k RTR 
- -t 15.099770615 -s 23 -d 19 -p DSR -e 68 -c 2 -a 0 -i 16 -k RTR
h -t 15.099770615 -s 23 -d 19 -p DSR -e 68 -c 2 -a 0 -i 16 -k RTR
+ -t 15.101572176 -s 14 -d 7 -p DSR -e 60 -c 2 -a 0 -i 14 -k RTR 
- -t 15.101572176 -s 14 -d 7 -p DSR -e 60 -c 2 -a 0 -i 14 -k RTR
h -t 15.101572176 -s 14 -d 7 -p DSR -e 60 -c 2 -a 0 -i 14 -k RTR
+ -t 15.103794335 -s 19 -d 13 -p DSR -e 68 -c 2 -a 0 -i 16 -k RTR 
- -t 15.103794335 -s 19 -d 13 -p DSR -e 68 -c 2 -a 0 -i 16 -k RTR
h -t 15.103794335 -s 19 -d 13 -p DSR -e 68 -c 2 -a 0 -i 16 -k RTR
+ -t 15.105731807 -s 18 -d 7 -p DSR -e 60 -c 2 -a 0 -i 15 -k RTR 
- -t 15.105731807 -s 18 -d 7 -p DSR -e 60 -c 2 -a 0 -i 15 -k RTR
h -t 15.105731807 -s 18 -d 7 -p DSR -e 60 -c 2 -a 0 -i 15 -k RTR
+ -t 15.107950514 -s 7 -d 0 -p DSR -e 60 -c 2 -a 0 -i 14 -k RTR 
- -t 15.107950514 -s 7 -d 0 -p DSR -e 60 -c 2 -a 0 -i 14 -k RTR
h -t 15.107950514 -s 7 -d 0 -p DSR -e 60 -c 2 -a 0 -i 14 -k RTR
+ -t 15.113926674 -s 6 -d 13 -p cbr -e 556 -c 2 -a 0 -i 0 -k RTR 
- -t 15.113926674 -s 6 -d 13 -p cbr -e 556 -c 2 -a 0 -i 0 -k RTR
h -t 15.113926674 -s 6 -d 13 -p cbr -e 556 -c 2 -a 0 -i 0 -k RTR
+ -t 15.121990795 -s 13 -d 23 -p cbr -e 556 -c 2 -a 0 -i 0 -k RTR 
- -t 15.121990795 -s 13 -d 23 -p cbr -e 556 -c 2 -a 0 -i 0 -k RTR
h -t 15.121990795 -s 13 -d 23 -p cbr -e 556 -c 2 -a 0 -i 0 -k RTR
+ -t 15.127625802 -s 0 -d 6 -p cbr -e 556 -c 2 -a 0 -i 3 -k RTR 
- -t 15.127625802 -s 0 -d 6 -p cbr -e 556 -c 2 -a 0 -i 3 -k RTR
h -t 15.127625802 -s 0 -d 6 -p cbr -e 556 -c 2 -a 0 -i 3 -k RTR
r -t 15.127936795 -s 23 -d 23 -p cbr -e 512 -c 2 -a 0 -i 0 -k AGT
+ -t 15.129957795 -s 24 -d 13 -p DSR -e 68 -c 2 -a 0 -i 13 -k RTR 
- -t 15.129957795 -s 24 -d 13 -p DSR -e 68 -c 2 -a 0 -i 13 -k RTR
h -t 15.129957795 -s 24 -d 13 -p DSR -e 68 -c 2 -a 0 -i 13 -k RTR
+ -t 15.133145543 -s 13 -d 6 -p DSR -e 68 -c 2 -a 0 -i 16 -k RTR 
- -t 15.133145543 -s 13 -d 6 -p DSR -e 68 -c 2 -a 0 -i 16 -k RTR
h -t 15.133145543 -s 13 -d 6 -p DSR -e 68 -c 2 -a 0 -i 16 -k RTR
+ -t 15.133822160 -s 0 -d -1 -p cbr -e 512 -c 2 -a 0 -i 17 -k AGT 
- -t 15.133822160 -s 0 -d -1 -p cbr -e 512 -c 2 -a 0 -i 17 -k AGT
h -t 15.133822160 -s 0 -d -1 -p cbr -e 512 -c 2 -a 0 -i 17 -k AGT
+ -t 15.133822160 -s 0 -d 6 -p cbr -e 556 -c 2 -a 0 -i 17 -k RTR 
- -t 15.133822160 -s 0 -d 6 -p cbr -e 556 -c 2 -a 0 -i 17 -k RTR
h -t 15.133822160 -s 0 -d 6 -p cbr -e 556 -c 2 -a 0 -i 17 -k RTR
+ -t 15.135104112 -s 7 -d 0 -p DSR -e 60 -c 2 -a 0 -i 15 -k RTR 
- -t 15.135104112 -s 7 -d 0 -p DSR -e 60 -c 2 -a 0 -i 15 -k RTR
h -t 15.135104112 -s 7 -d 0 -p DSR -e 60 -c 2 -a 0 -i 15 -k RTR
+ -t 15.143020768 -s 6 -d 0 -p DSR -e 68 -c 2 -a 0 -i 16 -k RTR 
- -t 15.143020768 -s 6 -d 0 -p DSR -e 68 -c 2 -a 0 -i 16 -k RTR
h -t 15.143020768 -s 6 -d 0 -p DSR -e 68 -c 2 -a 0 -i 16 -k RTR
+ -t 15.145526970 -s 22 -d 13 -p DSR -e 68 -c 2 -a 0 -i 12 -k RTR 
- -t 15.145526970 -s 22 -d 13 -p DSR -e 68 -c 2 -a 0 -i 12 -k RTR
h -t 15.145526970 -s 22 -d 13 -p DSR -e 68 -c 2 -a 0 -i 12 -k RTR
+ -t 15.147844717 -s 17 -d 6 -p DSR -e 60 -c 2 -a 0 -i 10 -k RTR 
- -t 15.147844717 -s 17 -d 6 -p DSR -e 60 -c 2 -a 0 -i 10 -k RTR
h -t 15.147844717 -s 17 -d 6 -p DSR -e 60 -c 2 -a 0 -i 10 -k RTR
+ -t 15.155520693 -s 13 -d 6 -p DSR -e 68 -c 2 -a 0 -i 12 -k RTR 
- -t 15.155520693 -s 13 -d 6 -p DSR -e 68 -c 2 -a 0 -i 12 -k RTR
h -t 15.155520693 -s 13 -d 6 -p DSR -e 68 -c 2 -a 0 -i 12 -k RTR
+ -t 15.157539360 -s 21 -d 10 -p DSR -e 60 -c 2 -a 0 -i 9 -k RTR 
- -t 15.157539360 -s 21 -d 10 -p DSR -e 60 -c 2 -a 0 -i 9 -k RTR
h -t 15.157539360 -s 21 -d 10 -p DSR -e 60 -c 2 -a 0 -i 9 -k RTR
+ -t 15.159518263 -s 16 -d 6 -p DSR -e 60 -c 2 -a 0 -i 8 -k RTR 
- -t 15.159518263 -s 16 -d 6 -p DSR -e 60 -c 2 -a 0 -i 8 -k RTR
h -t 15.159518263 -s 16 -d 6 -p DSR -e 60 -c 2 -a 0 -i 8 -k RTR
+ -t 15.161536832 -s 6 -d 0 -p DSR -e 60 -c 2 -a 0 -i 10 -k RTR 
- -t 15.161536832 -s 6 -d 0 -p DSR -e 60 -c 2 -a 0 -i 10 -k RTR
h -t 15.161536832 -s 6 -d 0 -p DSR -e 60 -c 2 -a 0 -i 10 -k RTR
+ -t 15.163879813 -s 6 -d 0 -p DSR -e 68 -c 2 -a 0 -i 12 -k RTR 
- -t 15.163879813 -s 6 -d 0 -p DSR -e 68 -c 2 -a 0 -i 12 -k RTR
h -t 15.163879813 -s 6 -d 0 -p DSR -e 68 -c 2 -a 0 -i 12 -k RTR
+ -t 15.168310406 -s 13 -d 6 -p DSR -e 68 -c 2 -a 0 -i 13 -k RTR 
- -t 15.168310406 -s 13 -d 6 -p DSR -e 68 -c 2 -a 0 -i 13 -k RTR
h -t 15.168310406 -s 13 -d 6 -p DSR -e 68 -c 2 -a 0 -i 13 -k RTR
+ -t 15.176627904 -s 6 -d 13 -p cbr -e 556 -c 2 -a 0 -i 3 -k RTR 
- -t 15.176627904 -s 6 -d 13 -p cbr -e 556 -c 2 -a 0 -i 3 -k RTR
h -t 15.176627904 -s 6 -d 13 -p cbr -e 556 -c 2 -a 0 -i 3 -k RTR
+ -t 15.177755573 -s 0 -d -1 -p cbr -e 512 -c 2 -a 0 -i 18 -k AGT 
- -t 15.177755573 -s 0 -d -1 -p cbr -e 512 -c 2 -a 0 -i 18 -k AGT
h -t 15.177755573 -s 0 -d -1 -p cbr -e 512 -c 2 -a 0 -i 18 -k AGT
+ -t 15.177755573 -s 0 -d 6 -p cbr -e 532 -c 2 -a 0 -i 18 -k RTR 
- -t 15.177755573 -s 0 -d 6 -p cbr -e 532 -c 2 -a 0 -i 18 -k RTR
h -t 15.177755573 -s 0 -d 6 -p cbr -e 532 -c 2 -a 0 -i 18 -k RTR
+ -t 15.178636486 -s 6 -d 0 -p DSR -e 60 -c 2 -a 0 -i 8 -k RTR 
- -t 15.178636486 -s 6 -d 0 -p DSR -e 60 -c 2 -a 0 -i 8 -k RTR
h -t 15.178636486 -s 6 -d 0 -p DSR -e 60 -c 2 -a 0 -i 8 -k RTR
+ -t 15.184562723 -s 13 -d 23 -p cbr -e 556 -c 2 -a 0 -i 3 -k RTR 
- -t 15.184562723 -s 13 -d 23 -p cbr -e 556 -c 2 -a 0 -i 3 -k RTR
h -t 15.184562723 -s 13 -d 23 -p cbr -e 556 -c 2 -a 0 -i 3 -k RTR
+ -t 15.192846296 -s 6 -d 13 -p cbr -e 556 -c 2 -a 0 -i 17 -k RTR 
- -t 15.192846296 -s 6 -d 13 -p cbr -e 556 -c 2 -a 0 -i 17 -k RTR
h -t 15.192846296 -s 6 -d 13 -p cbr -e 556 -c 2 -a 0 -i 17 -k RTR
+ -t 15.198932532 -s 13 -d 23 -p cbr -e 556 -c 2 -a 0 -i 17 -k RTR 
- -t 15.198932532 -s 13 -d 23 -p cbr -e 556 -c 2 -a 0 -i 17 -k RTR
h -t 15.198932532 -s 13 -d 23 -p cbr -e 556 -c 2 -a 0 -i 17 -k RTR
+ -t 15.201074768 -s 6 -d 0 -p DSR -e 68 -c 2 -a 0 -i 13 -k RTR 
- -t 15.201074768 -s 6 -d 0 -p DSR -e 68 -c 2 -a 0 -i 13 -k RTR
h -t 15.201074768 -s 6 -d 0 -p DSR -e 68 -c 2 -a 0 -i 13 -k RTR
+ -t 15.208929597 -s 6 -d 13 -p cbr -e 532 -c 2 -a 0 -i 18 -k RTR 
- -t 15.208929597 -s 6 -d 13 -p cbr -e 532 -c 2 -a 0 -i 18 -k RTR
h -t 15.208929597 -s 6 -d 13 -p cbr -e 532 -c 2 -a 0 -i 18 -k RTR
+ -t 15.214763833 -s 13 -d 23 -p cbr -e 532 -c 2 -a 0 -i 18 -k RTR 
- -t 15.214763833 -s 13 -d 23 -p cbr -e 532 -c 2 -a 0 -i 18 -k RTR
h -t 15.214763833 -s 13 -d 23 -p cbr -e 532 -c 2 -a 0 -i 18 -k RTR
r -t 15.221069833 -s 23 -d 23 -p cbr -e 512 -c 2 -a 0 -i 3 -k AGT
r -t 15.227056500 -s 23 -d 23 -p cbr -e 512 -c 2 -a 0 -i 17 -k AGT
r -t 15.232931166 -s 23 -d 23 -p cbr -e 512 -c 2 -a 0 -i 18 -k AGT
+ -t 15.235199678 -s 10 -d 0 -p DSR -e 60 -c 2 -a 0 -i 9 -k RTR 
- -t 15.235199678 -s 10 -d 0 -p DSR -e 60 -c 2 -a 0 -i 9 -k RTR
h -t 15.235199678 -s 10 -d 0 -p DSR -e 60 -c 2 -a 0 -i 9 -k RTR
+ -t 15.243742733 -s 0 -d -1 -p cbr -e 512 -c 2 -a 0 -i 19 -k AGT 
- -t 15.243742733 -s 0 -d -1 -p cbr -e 512 -c 2 -a 0 -i 19 -k AGT
h -t 15.243742733 -s 0 -d -1 -p cbr -e 512 -c 2 -a 0 -i 19 -k AGT
+ -t 15.243742733 -s 0 -d 6 -p cbr -e 532 -c 2 -a 0 -i 19 -k RTR 
- -t 15.243742733 -s 0 -d 6 -p cbr -e 532 -c 2 -a 0 -i 19 -k RTR
h -t 15.243742733 -s 0 -d 6 -p cbr -e 532 -c 2 -a 0 -i 19 -k RTR
+ -t 15.249352147 -s 6 -d 13 -p cbr -e 532 -c 2 -a 0 -i 19 -k RTR 
- -t 15.249352147 -s 6 -d 13 -p cbr -e 532 -c 2 -a 0 -i 19 -k RTR
h -t 15.249352147 -s 6 -d 13 -p cbr -e 532 -c 2 -a 0 -i 19 -k RTR
+ -t 15.255526383 -s 13 -d 23 -p cbr -e 532 -c 2 -a 0 -i 19 -k RTR 
- -t 15.255526383 -s 13 -d 23 -p cbr -e 532 -c 2 -a 0 -i 19 -k RTR
h -t 15.255526383 -s 13 -d 23 -p cbr -e 532 -c 2 -a 0 -i 19 -k RTR
r -t 15.261760383 -s 23 -d 23 -p cbr -e 512 -c 2 -a 0 -i 19 -k AGT
+ -t 15.300434595 -s 0 -d -1 -p cbr -e 512 -c 2 -a 0 -i 20 -k AGT 
- -t 15.300434595 -s 0 -d -1 -p cbr -e 512 -c 2 -a 0 -i 20 -k AGT
h -t 15.300434595 -s 0 -d -1 -p cbr -e 512 -c 2 -a 0 -i 20 -k AGT
+ -t 15.300434595 -s 0 -d 6 -p cbr -e 532 -c 2 -a 0 -i 20 -k RTR 
- -t 15.300434595 -s 0 -d 6 -p cbr -e 532 -c 2 -a 0 -i 20 -k RTR
h -t 15.300434595 -s 0 -d 6 -p cbr -e 532 -c 2 -a 0 -i 20 -k RTR
+ -t 15.306464009 -s 6 -d 13 -p cbr -e 532 -c 2 -a 0 -i 20 -k RTR 
- -t 15.306464009 -s 6 -d 13 -p cbr -e 532 -c 2 -a 0 -i 20 -k RTR
h -t 15.306464009 -s 6 -d 13 -p cbr -e 532 -c 2 -a 0 -i 20 -k RTR
+ -t 15.312338245 -s 13 -d 23 -p cbr -e 532 -c 2 -a 0 -i 20 -k RTR 
- -t 15.312338245 -s 13 -d 23 -p cbr -e 532 -c 2 -a 0 -i 20 -k RTR
h -t 15.312338245 -s 13 -d 23 -p cbr -e 532 -c 2 -a 0 -i 20 -k RTR
r -t 15.318632245 -s 23 -d 23 -p cbr -e 512 -c 2 -a 0 -i 20 -k AGT
+ -t 15.362084729 -s 0 -d -1 -p cbr -e 512 -c 2 -a 0 -i 21 -k AGT 
- -t 15.362084729 -s 0 -d -1 -p cbr -e 512 -c 2 -a 0 -i 21 -k AGT
h -t 15.362084729 -s 0 -d -1 -p cbr -e 512 -c 2 -a 0 -i 21 -k AGT
+ -t 15.362084729 -s 0 -d 6 -p cbr -e 532 -c 2 -a 0 -i 21 -k RTR 
- -t 15.362084729 -s 0 -d 6 -p cbr -e 532 -c 2 -a 0 -i 21 -k RTR
h -t 15.362084729 -s 0 -d 6 -p cbr -e 532 -c 2 -a 0 -i 21 -k RTR
+ -t 15.367894143 -s 6 -d 13 -p cbr -e 532 -c 2 -a 0 -i 21 -k RTR 
- -t 15.367894143 -s 6 -d 13 -p cbr -e 532 -c 2 -a 0 -i 21 -k RTR
h -t 15.367894143 -s 6 -d 13 -p cbr -e 532 -c 2 -a 0 -i 21 -k RTR
+ -t 15.373848379 -s 13 -d 23 -p cbr -e 532 -c 2 -a 0 -i 21 -k RTR 
- -t 15.373848379 -s 13 -d 23 -p cbr -e 532 -c 2 -a 0 -i 21 -k RTR
h -t 15.373848379 -s 13 -d 23 -p cbr -e 532 -c 2 -a 0 -i 21 -k RTR
r -t 15.380142379 -s 23 -d 23 -p cbr -e 512 -c 2 -a 0 -i 21 -k AGT
+ -t 15.436473773 -s 0 -d -1 -p cbr -e 512 -c 2 -a 0 -i 22 -k AGT 
- -t 15.436473773 -s 0 -d -1 -p cbr -e 512 -c 2 -a 0 -i 22 -k AGT
h -t 15.436473773 -s 0 -d -1 -p cbr -e 512 -c 2 -a 0 -i 22 -k AGT
+ -t 15.436473773 -s 0 -d 6 -p cbr -e 532 -c 2 -a 0 -i 22 -k RTR 
- -t 15.436473773 -s 0 -d 6 -p cbr -e 532 -c 2 -a 0 -i 22 -k RTR
h -t 15.436473773 -s 0 -d 6 -p cbr -e 532 -c 2 -a 0 -i 22 -k RTR
+ -t 15.442183187 -s 6 -d 13 -p cbr -e 532 -c 2 -a 0 -i 22 -k RTR 
- -t 15.442183187 -s 6 -d 13 -p cbr -e 532 -c 2 -a 0 -i 22 -k RTR
h -t 15.442183187 -s 6 -d 13 -p cbr -e 532 -c 2 -a 0 -i 22 -k RTR
+ -t 15.448337423 -s 13 -d 23 -p cbr -e 532 -c 2 -a 0 -i 22 -k RTR 
- -t 15.448337423 -s 13 -d 23 -p cbr -e 532 -c 2 -a 0 -i 22 -k RTR
h -t 15.448337423 -s 13 -d 23 -p cbr -e 532 -c 2 -a 0 -i 22 -k RTR
r -t 15.454551423 -s 23 -d 23 -p cbr -e 512 -c 2 -a 0 -i 22 -k AGT
+ -t 15.469833352 -s 0 -d -1 -p cbr -e 512 -c 2 -a 0 -i 23 -k AGT 
- -t 15.469833352 -s 0 -d -1 -p cbr -e 512 -c 2 -a 0 -i 23 -k AGT
h -t 15.469833352 -s 0 -d -1 -p cbr -e 512 -c 2 -a 0 -i 23 -k AGT
+ -t 15.469833352 -s 0 -d 6 -p cbr -e 532 -c 2 -a 0 -i 23 -k RTR 
- -t 15.469833352 -s 0 -d 6 -p cbr -e 532 -c 2 -a 0 -i 23 -k RTR
h -t 15.469833352 -s 0 -d 6 -p cbr -e 532 -c 2 -a 0 -i 23 -k RTR
+ -t 15.475842766 -s 6 -d 13 -p cbr -e 532 -c 2 -a 0 -i 23 -k RTR 
- -t 15.475842766 -s 6 -d 13 -p cbr -e 532 -c 2 -a 0 -i 23 -k RTR
h -t 15.475842766 -s 6 -d 13 -p cbr -e 532 -c 2 -a 0 -i 23 -k RTR
+ -t 15.481637002 -s 13 -d 23 -p cbr -e 532 -c 2 -a 0 -i 23 -k RTR 
- -t 15.481637002 -s 13 -d 23 -p cbr -e 532 -c 2 -a 0 -i 23 -k RTR
h -t 15.481637002 -s 13 -d 23 -p cbr -e 532 -c 2 -a 0 -i 23 -k RTR
r -t 15.487711002 -s 23 -d 23 -p cbr -e 512 -c 2 -a 0 -i 23 -k AGT
+ -t 15.513312041 -s 0 -d -1 -p cbr -e 512 -c 2 -a 0 -i 24 -k AGT 
- -t 15.513312041 -s 0 -d -1 -p cbr -e 512 -c 2 -a 0 -i 24 -k AGT
h -t 15.513312041 -s 0 -d -1 -p cbr -e 512 -c 2 -a 0 -i 24 -k AGT
+ -t 15.513312041 -s 0 -d 6 -p cbr -e 532 -c 2 -a 0 -i 24 -k RTR 
- -t 15.513312041 -s 0 -d 6 -p cbr -e 532 -c 2 -a 0 -i 24 -k RTR
h -t 15.513312041 -s 0 -d 6 -p cbr -e 532 -c 2 -a 0 -i 24 -k RTR
+ -t 15.518821455 -s 6 -d 13 -p cbr -e 532 -c 2 -a 0 -i 24 -k RTR 
- -t 15.518821455 -s 6 -d 13 -p cbr -e 532 -c 2 -a 0 -i 24 -k RTR
h -t 15.518821455 -s 6 -d 13 -p cbr -e 532 -c 2 -a 0 -i 24 -k RTR
+ -t 15.525035691 -s 13 -d 23 -p cbr -e 532 -c 2 -a 0 -i 24 -k RTR 
- -t 15.525035691 -s 13 -d 23 -p cbr -e 532 -c 2 -a 0 -i 24 -k RTR
h -t 15.525035691 -s 13 -d 23 -p cbr -e 532 -c 2 -a 0 -i 24 -k RTR
r -t 15.531049691 -s 23 -d 23 -p cbr -e 512 -c 2 -a 0 -i 24 -k AGT
+ -t 15.564015844 -s 0 -d -1 -p cbr -e 512 -c 2 -a 0 -i 25 -k AGT 
- -t 15.564015844 -s 0 -d -1 -p cbr -e 512 -c 2 -a 0 -i 25 -k AGT
h -t 15.564015844 -s 0 -d -1 -p cbr -e 512 -c 2 -a 0 -i 25 -k AGT
+ -t 15.564015844 -s 0 -d 6 -p cbr -e 532 -c 2 -a 0 -i 25 -k RTR 
- -t 15.564015844 -s 0 -d 6 -p cbr -e 532 -c 2 -a 0 -i 25 -k RTR
h -t 15.564015844 -s 0 -d 6 -p cbr -e 532 -c 2 -a 0 -i 25 -k RTR
+ -t 15.569705259 -s 6 -d 13 -p cbr -e 532 -c 2 -a 0 -i 25 -k RTR 
- -t 15.569705259 -s 6 -d 13 -p cbr -e 532 -c 2 -a 0 -i 25 -k RTR
h -t 15.569705259 -s 6 -d 13 -p cbr -e 532 -c 2 -a 0 -i 25 -k RTR
+ -t 15.575799495 -s 13 -d 23 -p cbr -e 532 -c 2 -a 0 -i 25 -k RTR 
- -t 15.575799495 -s 13 -d 23 -p cbr -e 532 -c 2 -a 0 -i 25 -k RTR
h -t 15.575799495 -s 13 -d 23 -p cbr -e 532 -c 2 -a 0 -i 25 -k RTR
r -t 15.581593495 -s 23 -d 23 -p cbr -e 512 -c 2 -a 0 -i 25 -k AGT
+ -t 15.619028327 -s 0 -d -1 -p cbr -e 512 -c 2 -a 0 -i 26 -k AGT 
- -t 15.619028327 -s 0 -d -1 -p cbr -e 512 -c 2 -a 0 -i 26 -k AGT
h -t 15.619028327 -s 0 -d -1 -p cbr -e 512 -c 2 -a 0 -i 26 -k AGT
+ -t 15.619028327 -s 0 -d 6 -p cbr -e 532 -c 2 -a 0 -i 26 -k RTR 
- -t 15.619028327 -s 0 -d 6 -p cbr -e 532 -c 2 -a 0 -i 26 -k RTR
h -t 15.619028327 -s 0 -d 6 -p cbr -e 532 -c 2 -a 0 -i 26 -k RTR
+ -t 15.624657741 -s 6 -d 13 -p cbr -e 532 -c 2 -a 0 -i 26 -k RTR 
- -t 15.624657741 -s 6 -d 13 -p cbr -e 532 -c 2 -a 0 -i 26 -k RTR
h -t 15.624657741 -s 6 -d 13 -p cbr -e 532 -c 2 -a 0 -i 26 -k RTR
+ -t 15.630931977 -s 13 -d 23 -p cbr -e 532 -c 2 -a 0 -i 26 -k RTR 
- -t 15.630931977 -s 13 -d 23 -p cbr -e 532 -c 2 -a 0 -i 26 -k RTR
h -t 15.630931977 -s 13 -d 23 -p cbr -e 532 -c 2 -a 0 -i 26 -k RTR
r -t 15.636705977 -s 23 -d 23 -p cbr -e 512 -c 2 -a 0 -i 26 -k AGT
+ -t 15.675089926 -s 0 -d -1 -p cbr -e 512 -c 2 -a 0 -i 27 -k AGT 
- -t 15.675089926 -s 0 -d -1 -p cbr -e 512 -c 2 -a 0 -i 27 -k AGT
h -t 15.675089926 -s 0 -d -1 -p cbr -e 512 -c 2 -a 0 -i 27 -k AGT
+ -t 15.675089926 -s 0 -d 6 -p cbr -e 532 -c 2 -a 0 -i 27 -k RTR 
- -t 15.675089926 -s 0 -d 6 -p cbr -e 532 -c 2 -a 0 -i 27 -k RTR
h -t 15.675089926 -s 0 -d 6 -p cbr -e 532 -c 2 -a 0 -i 27 -k RTR
+ -t 15.680739340 -s 6 -d 13 -p cbr -e 532 -c 2 -a 0 -i 27 -k RTR 
- -t 15.680739340 -s 6 -d 13 -p cbr -e 532 -c 2 -a 0 -i 27 -k RTR
h -t 15.680739340 -s 6 -d 13 -p cbr -e 532 -c 2 -a 0 -i 27 -k RTR
+ -t 15.686933577 -s 13 -d 23 -p cbr -e 532 -c 2 -a 0 -i 27 -k RTR 
- -t 15.686933577 -s 13 -d 23 -p cbr -e 532 -c 2 -a 0 -i 27 -k RTR
h -t 15.686933577 -s 13 -d 23 -p cbr -e 532 -c 2 -a 0 -i 27 -k RTR
r -t 15.693007577 -s 23 -d 23 -p cbr -e 512 -c 2 -a 0 -i 27 -k AGT
+ -t 15.730922414 -s 0 -d -1 -p cbr -e 512 -c 2 -a 0 -i 28 -k AGT 
- -t 15.730922414 -s 0 -d -1 -p cbr -e 512 -c 2 -a 0 -i 28 -k AGT
h -t 15.730922414 -s 0 -d -1 -p cbr -e 512 -c 2 -a 0 -i 28 -k AGT
+ -t 15.730922414 -s 0 -d 6 -p cbr -e 532 -c 2 -a 0 -i 28 -k RTR 
- -t 15.730922414 -s 0 -d 6 -p cbr -e 532 -c 2 -a 0 -i 28 -k RTR
h -t 15.730922414 -s 0 -d 6 -p cbr -e 532 -c 2 -a 0 -i 28 -k RTR
+ -t 15.736371828 -s 6 -d 13 -p cbr -e 532 -c 2 -a 0 -i 28 -k RTR 
- -t 15.736371828 -s 6 -d 13 -p cbr -e 532 -c 2 -a 0 -i 28 -k RTR
h -t 15.736371828 -s 6 -d 13 -p cbr -e 532 -c 2 -a 0 -i 28 -k RTR
+ -t 15.742246064 -s 13 -d 23 -p cbr -e 532 -c 2 -a 0 -i 28 -k RTR 
- -t 15.742246064 -s 13 -d 23 -p cbr -e 532 -c 2 -a 0 -i 28 -k RTR
h -t 15.742246064 -s 13 -d 23 -p cbr -e 532 -c 2 -a 0 -i 28 -k RTR
r -t 15.748240064 -s 23 -d 23 -p cbr -e 512 -c 2 -a 0 -i 28 -k AGT
+ -t 15.775267693 -s 0 -d -1 -p cbr -e 512 -c 2 -a 0 -i 29 -k AGT 
- -t 15.775267693 -s 0 -d -1 -p cbr -e 512 -c 2 -a 0 -i 29 -k AGT
h -t 15.775267693 -s 0 -d -1 -p cbr -e 512 -c 2 -a 0 -i 29 -k AGT
+ -t 15.775267693 -s 0 -d 6 -p cbr -e 532 -c 2 -a 0 -i 29 -k RTR 
- -t 15.775267693 -s 0 -d 6 -p cbr -e 532 -c 2 -a 0 -i 29 -k RTR
h -t 15.775267693 -s 0 -d 6 -p cbr -e 532 -c 2 -a 0 -i 29 -k RTR
+ -t 15.780857108 -s 6 -d 13 -p cbr -e 532 -c 2 -a 0 -i 29 -k RTR 
- -t 15.780857108 -s 6 -d 13 -p cbr -e 532 -c 2 -a 0 -i 29 -k RTR
h -t 15.780857108 -s 6 -d 13 -p cbr -e 532 -c 2 -a 0 -i 29 -k RTR
+ -t 15.787111344 -s 13 -d 23 -p cbr -e 532 -c 2 -a 0 -i 29 -k RTR 
- -t 15.787111344 -s 13 -d 23 -p cbr -e 532 -c 2 -a 0 -i 29 -k RTR
h -t 15.787111344 -s 13 -d 23 -p cbr -e 532 -c 2 -a 0 -i 29 -k RTR
r -t 15.792945344 -s 23 -d 23 -p cbr -e 512 -c 2 -a 0 -i 29 -k AGT
+ -t 15.836000909 -s 0 -d -1 -p cbr -e 512 -c 2 -a 0 -i 30 -k AGT 
- -t 15.836000909 -s 0 -d -1 -p cbr -e 512 -c 2 -a 0 -i 30 -k AGT
h -t 15.836000909 -s 0 -d -1 -p cbr -e 512 -c 2 -a 0 -i 30 -k AGT
+ -t 15.836000909 -s 0 -d 6 -p cbr -e 532 -c 2 -a 0 -i 30 -k RTR 
- -t 15.836000909 -s 0 -d 6 -p cbr -e 532 -c 2 -a 0 -i 30 -k RTR
h -t 15.836000909 -s 0 -d 6 -p cbr -e 532 -c 2 -a 0 -i 30 -k RTR
+ -t 15.841730324 -s 6 -d 13 -p cbr -e 532 -c 2 -a 0 -i 30 -k RTR 
- -t 15.841730324 -s 6 -d 13 -p cbr -e 532 -c 2 -a 0 -i 30 -k RTR
h -t 15.841730324 -s 6 -d 13 -p cbr -e 532 -c 2 -a 0 -i 30 -k RTR
+ -t 15.848004560 -s 13 -d 23 -p cbr -e 532 -c 2 -a 0 -i 30 -k RTR 
- -t 15.848004560 -s 13 -d 23 -p cbr -e 532 -c 2 -a 0 -i 30 -k RTR
h -t 15.848004560 -s 13 -d 23 -p cbr -e 532 -c 2 -a 0 -i 30 -k RTR
r -t 15.854318560 -s 23 -d 23 -p cbr -e 512 -c 2 -a 0 -i 30 -k AGT
+ -t 15.902695619 -s 0 -d -1 -p cbr -e 512 -c 2 -a 0 -i 31 -k AGT 
- -t 15.902695619 -s 0 -d -1 -p cbr -e 512 -c 2 -a 0 -i 31 -k AGT
h -t 15.902695619 -s 0 -d -1 -p cbr -e 512 -c 2 -a 0 -i 31 -k AGT
+ -t 15.902695619 -s 0 -d 6 -p cbr -e 532 -c 2 -a 0 -i 31 -k RTR 
- -t 15.902695619 -s 0 -d 6 -p cbr -e 532 -c 2 -a 0 -i 31 -k RTR
h -t 15.902695619 -s 0 -d 6 -p cbr -e 532 -c 2 -a 0 -i 31 -k RTR
+ -t 15.908265033 -s 6 -d 13 -p cbr -e 532 -c 2 -a 0 -i 31 -k RTR 
- -t 15.908265033 -s 6 -d 13 -p cbr -e 532 -c 2 -a 0 -i 31 -k RTR
h -t 15.908265033 -s 6 -d 13 -p cbr -e 532 -c 2 -a 0 -i 31 -k RTR
+ -t 15.913979269 -s 13 -d 23 -p cbr -e 532 -c 2 -a 0 -i 31 -k RTR 
- -t 15.913979269 -s 13 -d 23 -p cbr -e 532 -c 2 -a 0 -i 31 -k RTR
h -t 15.913979269 -s 13 -d 23 -p cbr -e 532 -c 2 -a 0 -i 31 -k RTR
r -t 15.920273269 -s 23 -d 23 -p cbr -e 512 -c 2 -a 0 -i 31 -k AGT
+ -t 15.947121256 -s 0 -d -1 -p cbr -e 512 -c 2 -a 0 -i 32 -k AGT 
- -t 15.947121256 -s 0 -d -1 -p cbr -e 512 -c 2 -a 0 -i 32 -k AGT
h -t 15.947121256 -s 0 -d -1 -p cbr -e 512 -c 2 -a 0 -i 32 -k AGT
+ -t 15.947121256 -s 0 -d 6 -p cbr -e 532 -c 2 -a 0 -i 32 -k RTR 
- -t 15.947121256 -s 0 -d 6 -p cbr -e 532 -c 2 -a 0 -i 32 -k RTR
h -t 15.947121256 -s 0 -d 6 -p cbr -e 532 -c 2 -a 0 -i 32 -k RTR
+ -t 15.952690670 -s 6 -d 13 -p cbr -e 532 -c 2 -a 0 -i 32 -k RTR 
- -t 15.952690670 -s 6 -d 13 -p cbr -e 532 -c 2 -a 0 -i 32 -k RTR
h -t 15.952690670 -s 6 -d 13 -p cbr -e 532 -c 2 -a 0 -i 32 -k RTR
+ -t 15.958664906 -s 13 -d 23 -p cbr -e 532 -c 2 -a 0 -i 32 -k RTR 
- -t 15.958664906 -s 13 -d 23 -p cbr -e 532 -c 2 -a 0 -i 32 -k RTR
h -t 15.958664906 -s 13 -d 23 -p cbr -e 532 -c 2 -a 0 -i 32 -k RTR
r -t 15.964518906 -s 23 -d 23 -p cbr -e 512 -c 2 -a 0 -i 32 -k AGT
+ -t 15.979666650 -s 0 -d -1 -p cbr -e 512 -c 2 -a 0 -i 33 -k AGT 
- -t 15.979666650 -s 0 -d -1 -p cbr -e 512 -c 2 -a 0 -i 33 -k AGT
h -t 15.979666650 -s 0 -d -1 -p cbr -e 512 -c 2 -a 0 -i 33 -k AGT
+ -t 15.979666650 -s 0 -d 6 -p cbr -e 532 -c 2 -a 0 -i 33 -k RTR 
- -t 15.979666650 -s 0 -d 6 -p cbr -e 532 -c 2 -a 0 -i 33 -k RTR
h -t 15.979666650 -s 0 -d 6 -p cbr -e 532 -c 2 -a 0 -i 33 -k RTR
+ -t 15.985376064 -s 6 -d 13 -p cbr -e 532 -c 2 -a 0 -i 33 -k RTR 
- -t 15.985376064 -s 6 -d 13 -p cbr -e 532 -c 2 -a 0 -i 33 -k RTR
h -t 15.985376064 -s 6 -d 13 -p cbr -e 532 -c 2 -a 0 -i 33 -k RTR
+ -t 15.991090300 -s 13 -d 23 -p cbr -e 532 -c 2 -a 0 -i 33 -k RTR 
- -t 15.991090300 -s 13 -d 23 -p cbr -e 532 -c 2 -a 0 -i 33 -k RTR
h -t 15.991090300 -s 13 -d 23 -p cbr -e 532 -c 2 -a 0 -i 33 -k RTR
r -t 15.996844300 -s 23 -d 23 -p cbr -e 512 -c 2 -a 0 -i 33 -k AGT
+ -t 16.040717020 -s 0 -d -1 -p cbr -e 512 -c 2 -a 0 -i 34 -k AGT 
- -t 16.040717020 -s 0 -d -1 -p cbr -e 512 -c 2 -a 0 -i 34 -k AGT
h -t 16.040717020 -s 0 -d -1 -p cbr -e 512 -c 2 -a 0 -i 34 -k AGT
+ -t 16.040717020 -s 0 -d 6 -p cbr -e 532 -c 2 -a 0 -i 34 -k RTR 
- -t 16.040717020 -s 0 -d 6 -p cbr -e 532 -c 2 -a 0 -i 34 -k RTR
h -t 16.040717020 -s 0 -d 6 -p cbr -e 532 -c 2 -a 0 -i 34 -k RTR
+ -t 16.046666434 -s 6 -d 13 -p cbr -e 532 -c 2 -a 0 -i 34 -k RTR 
- -t 16.046666434 -s 6 -d 13 -p cbr -e 532 -c 2 -a 0 -i 34 -k RTR
h -t 16.046666434 -s 6 -d 13 -p cbr -e 532 -c 2 -a 0 -i 34 -k RTR
+ -t 16.052980670 -s 13 -d 23 -p cbr -e 532 -c 2 -a 0 -i 34 -k RTR 