n -t * -s 0  -x 100 -y 0 -Z 0 -z 30  -v circle -c black
n -t * -s 1  -x 300 -y 0 -Z 0 -z 30  -v circle -c black
n -t * -s 2  -x 500 -y 0 -Z 0 -z 30  -v circle -c black
n -t * -s 3  -x 100 -y 100 -Z 0 -z 30  -v circle -c black
n -t * -s 4  -x 300 -y 100 -Z 0 -z 30  -v circle -c black
n -t * -s 5  -x 500 -y 100 -Z 0 -z 30  -v circle -c black
n -t * -s 6  -x 100 -y 200 -Z 0 -z 30  -v circle -c black
n -t * -s 7  -x 300 -y 200 -Z 0 -z 30  -v circle -c black
n -t * -s 8  -x 500 -y 200 -Z 0 -z 30  -v circle -c black
n -t * -s 9  -x 100 -y 300 -Z 0 -z 30  -v circle -c black
n -t * -s 10  -x 300 -y 300 -Z 0 -z 30  -v circle -c black
n -t * -s 11  -x 500 -y 300 -Z 0 -z 30  -v circle -c black
n -t * -s 12  -x 100 -y 400 -Z 0 -z 30  -v circle -c black
n -t * -s 13  -x 300 -y 400 -Z 0 -z 30  -v circle -c black
n -t * -s 14  -x 500 -y 400 -Z 0 -z 30  -v circle -c black
n -t * -s 15  -x 100 -y 500 -Z 0 -z 30  -v circle -c black
n -t * -s 16  -x 300 -y 500 -Z 0 -z 30  -v circle -c black
n -t * -s 17  -x 500 -y 500 -Z 0 -z 30  -v circle -c black
n -t * -s 18  -x 400 -y 500 -Z 0 -z 30  -v circle -c black
n -t * -s 19  -x 200 -y 500 -Z 0 -z 30  -v circle -c black
n -t * -s 20  -x 400 -y 400 -Z 0 -z 30  -v circle -c black
n -t * -s 21  -x 200 -y 400 -Z 0 -z 30  -v circle -c black
n -t * -s 22  -x 400 -y 300 -Z 0 -z 30  -v circle -c black
n -t * -s 23  -x 200 -y 300 -Z 0 -z 30  -v circle -c black
n -t * -s 24  -x 400 -y 200 -Z 0 -z 30  -v circle -c black
V -t * -v 1.0a5 -a 0
W -t * -x 500 -y 500
A -t * -n 1 -p 0 -o 0xffffffff -c 31 -a 1
A -t * -h 1 -m 2147483647 -s 0
+ -t 15.000000000 -s 0 -d -1 -p cbr -e 512 -c 2 -a 0 -i 0 -k AGT 
- -t 15.000000000 -s 0 -d -1 -p cbr -e 512 -c 2 -a 0 -i 0 -k AGT
h -t 15.000000000 -s 0 -d -1 -p cbr -e 512 -c 2 -a 0 -i 0 -k AGT
+ -t 15.008890119 -s 0 -d -1 -p DSR -e 32 -c 2 -a 0 -i 1 -k RTR 
- -t 15.008890119 -s 0 -d -1 -p DSR -e 32 -c 2 -a 0 -i 1 -k RTR
h -t 15.008890119 -s 0 -d -1 -p DSR -e 32 -c 2 -a 0 -i 1 -k RTR
+ -t 15.059350291 -s 0 -d -1 -p cbr -e 512 -c 2 -a 0 -i 3 -k AGT 
- -t 15.059350291 -s 0 -d -1 -p cbr -e 512 -c 2 -a 0 -i 3 -k AGT
h -t 15.059350291 -s 0 -d -1 -p cbr -e 512 -c 2 -a 0 -i 3 -k AGT
+ -t 15.060942607 -s 0 -d -1 -p DSR -e 32 -c 2 -a 0 -i 4 -k RTR 
- -t 15.060942607 -s 0 -d -1 -p DSR -e 32 -c 2 -a 0 -i 4 -k RTR
h -t 15.060942607 -s 0 -d -1 -p DSR -e 32 -c 2 -a 0 -i 4 -k RTR
+ -t 15.064492243 -s 1 -d -1 -p DSR -e 48 -c 2 -a 0 -i 4 -k RTR 
- -t 15.064492243 -s 1 -d -1 -p DSR -e 48 -c 2 -a 0 -i 4 -k RTR
h -t 15.064492243 -s 1 -d -1 -p DSR -e 48 -c 2 -a 0 -i 4 -k RTR
+ -t 15.065756398 -s 4 -d -1 -p DSR -e 48 -c 2 -a 0 -i 4 -k RTR 
- -t 15.065756398 -s 4 -d -1 -p DSR -e 48 -c 2 -a 0 -i 4 -k RTR
h -t 15.065756398 -s 4 -d -1 -p DSR -e 48 -c 2 -a 0 -i 4 -k RTR
+ -t 15.066079365 -s 6 -d -1 -p DSR -e 48 -c 2 -a 0 -i 4 -k RTR 
- -t 15.066079365 -s 6 -d -1 -p DSR -e 48 -c 2 -a 0 -i 4 -k RTR
h -t 15.066079365 -s 6 -d -1 -p DSR -e 48 -c 2 -a 0 -i 4 -k RTR
+ -t 15.068250126 -s 7 -d -1 -p DSR -e 68 -c 2 -a 0 -i 4 -k RTR 
- -t 15.068250126 -s 7 -d -1 -p DSR -e 68 -c 2 -a 0 -i 4 -k RTR
h -t 15.068250126 -s 7 -d -1 -p DSR -e 68 -c 2 -a 0 -i 4 -k RTR
+ -t 15.069057294 -s 12 -d -1 -p DSR -e 68 -c 2 -a 0 -i 4 -k RTR 
- -t 15.069057294 -s 12 -d -1 -p DSR -e 68 -c 2 -a 0 -i 4 -k RTR
h -t 15.069057294 -s 12 -d -1 -p DSR -e 68 -c 2 -a 0 -i 4 -k RTR
+ -t 15.069378451 -s 23 -d -1 -p DSR -e 68 -c 2 -a 0 -i 4 -k RTR 
- -t 15.069378451 -s 23 -d -1 -p DSR -e 68 -c 2 -a 0 -i 4 -k RTR
h -t 15.069378451 -s 23 -d -1 -p DSR -e 68 -c 2 -a 0 -i 4 -k RTR
+ -t 15.069878519 -s 8 -d -1 -p DSR -e 68 -c 2 -a 0 -i 4 -k RTR 
- -t 15.069878519 -s 8 -d -1 -p DSR -e 68 -c 2 -a 0 -i 4 -k RTR
h -t 15.069878519 -s 8 -d -1 -p DSR -e 68 -c 2 -a 0 -i 4 -k RTR
+ -t 15.069891420 -s 21 -d -1 -p DSR -e 68 -c 2 -a 0 -i 4 -k RTR 
- -t 15.069891420 -s 21 -d -1 -p DSR -e 68 -c 2 -a 0 -i 4 -k RTR
h -t 15.069891420 -s 21 -d -1 -p DSR -e 68 -c 2 -a 0 -i 4 -k RTR
+ -t 15.071211265 -s 3 -d -1 -p DSR -e 48 -c 2 -a 0 -i 4 -k RTR 
- -t 15.071211265 -s 3 -d -1 -p DSR -e 48 -c 2 -a 0 -i 4 -k RTR
h -t 15.071211265 -s 3 -d -1 -p DSR -e 48 -c 2 -a 0 -i 4 -k RTR
+ -t 15.072051759 -s 5 -d -1 -p DSR -e 68 -c 2 -a 0 -i 4 -k RTR 
- -t 15.072051759 -s 5 -d -1 -p DSR -e 68 -c 2 -a 0 -i 4 -k RTR
h -t 15.072051759 -s 5 -d -1 -p DSR -e 68 -c 2 -a 0 -i 4 -k RTR
+ -t 15.072383544 -s 16 -d 23 -p DSR -e 60 -c 2 -a 0 -i 7 -k RTR 
- -t 15.072383544 -s 16 -d 23 -p DSR -e 60 -c 2 -a 0 -i 7 -k RTR
h -t 15.072383544 -s 16 -d 23 -p DSR -e 60 -c 2 -a 0 -i 7 -k RTR
+ -t 15.072680407 -s 24 -d -1 -p DSR -e 68 -c 2 -a 0 -i 4 -k RTR 
- -t 15.072680407 -s 24 -d -1 -p DSR -e 68 -c 2 -a 0 -i 4 -k RTR
h -t 15.072680407 -s 24 -d -1 -p DSR -e 68 -c 2 -a 0 -i 4 -k RTR
+ -t 15.073494162 -s 13 -d -1 -p DSR -e 92 -c 2 -a 0 -i 4 -k RTR 
- -t 15.073494162 -s 13 -d -1 -p DSR -e 92 -c 2 -a 0 -i 4 -k RTR
h -t 15.073494162 -s 13 -d -1 -p DSR -e 92 -c 2 -a 0 -i 4 -k RTR
+ -t 15.074126764 -s 15 -d -1 -p DSR -e 92 -c 2 -a 0 -i 4 -k RTR 
- -t 15.074126764 -s 15 -d -1 -p DSR -e 92 -c 2 -a 0 -i 4 -k RTR
h -t 15.074126764 -s 15 -d -1 -p DSR -e 92 -c 2 -a 0 -i 4 -k RTR
+ -t 15.074609241 -s 2 -d -1 -p DSR -e 68 -c 2 -a 0 -i 4 -k RTR 
- -t 15.074609241 -s 2 -d -1 -p DSR -e 68 -c 2 -a 0 -i 4 -k RTR
h -t 15.074609241 -s 2 -d -1 -p DSR -e 68 -c 2 -a 0 -i 4 -k RTR
+ -t 15.074785889 -s 20 -d -1 -p DSR -e 92 -c 2 -a 0 -i 4 -k RTR 
- -t 15.074785889 -s 20 -d -1 -p DSR -e 92 -c 2 -a 0 -i 4 -k RTR
h -t 15.074785889 -s 20 -d -1 -p DSR -e 92 -c 2 -a 0 -i 4 -k RTR
+ -t 15.075039972 -s 23 -d 4 -p DSR -e 60 -c 2 -a 0 -i 7 -k RTR 
- -t 15.075039972 -s 23 -d 4 -p DSR -e 60 -c 2 -a 0 -i 7 -k RTR
h -t 15.075039972 -s 23 -d 4 -p DSR -e 60 -c 2 -a 0 -i 7 -k RTR
+ -t 15.075220622 -s 18 -d -1 -p DSR -e 92 -c 2 -a 0 -i 4 -k RTR 
- -t 15.075220622 -s 18 -d -1 -p DSR -e 92 -c 2 -a 0 -i 4 -k RTR
h -t 15.075220622 -s 18 -d -1 -p DSR -e 92 -c 2 -a 0 -i 4 -k RTR
+ -t 15.076234359 -s 16 -d 12 -p DSR -e 60 -c 2 -a 0 -i 8 -k RTR 
- -t 15.076234359 -s 16 -d 12 -p DSR -e 60 -c 2 -a 0 -i 8 -k RTR
h -t 15.076234359 -s 16 -d 12 -p DSR -e 60 -c 2 -a 0 -i 8 -k RTR
+ -t 15.076235076 -s 10 -d -1 -p DSR -e 68 -c 2 -a 0 -i 4 -k RTR 
- -t 15.076235076 -s 10 -d -1 -p DSR -e 68 -c 2 -a 0 -i 4 -k RTR
h -t 15.076235076 -s 10 -d -1 -p DSR -e 68 -c 2 -a 0 -i 4 -k RTR
+ -t 15.076912217 -s 22 -d -1 -p DSR -e 68 -c 2 -a 0 -i 4 -k RTR 
- -t 15.076912217 -s 22 -d -1 -p DSR -e 68 -c 2 -a 0 -i 4 -k RTR
h -t 15.076912217 -s 22 -d -1 -p DSR -e 68 -c 2 -a 0 -i 4 -k RTR
+ -t 15.077058208 -s 4 -d 0 -p DSR -e 60 -c 2 -a 0 -i 7 -k RTR 
- -t 15.077058208 -s 4 -d 0 -p DSR -e 60 -c 2 -a 0 -i 7 -k RTR
h -t 15.077058208 -s 4 -d 0 -p DSR -e 60 -c 2 -a 0 -i 7 -k RTR
+ -t 15.077387371 -s 11 -d -1 -p DSR -e 92 -c 2 -a 0 -i 4 -k RTR 
- -t 15.077387371 -s 11 -d -1 -p DSR -e 92 -c 2 -a 0 -i 4 -k RTR
h -t 15.077387371 -s 11 -d -1 -p DSR -e 92 -c 2 -a 0 -i 4 -k RTR
+ -t 15.078056782 -s 19 -d -1 -p DSR -e 92 -c 2 -a 0 -i 4 -k RTR 
- -t 15.078056782 -s 19 -d -1 -p DSR -e 92 -c 2 -a 0 -i 4 -k RTR
h -t 15.078056782 -s 19 -d -1 -p DSR -e 92 -c 2 -a 0 -i 4 -k RTR
+ -t 15.078295799 -s 9 -d -1 -p DSR -e 68 -c 2 -a 0 -i 4 -k RTR 
- -t 15.078295799 -s 9 -d -1 -p DSR -e 68 -c 2 -a 0 -i 4 -k RTR
h -t 15.078295799 -s 9 -d -1 -p DSR -e 68 -c 2 -a 0 -i 4 -k RTR
+ -t 15.078423425 -s 14 -d 24 -p DSR -e 64 -c 2 -a 0 -i 10 -k RTR 
- -t 15.078423425 -s 14 -d 24 -p DSR -e 64 -c 2 -a 0 -i 10 -k RTR
h -t 15.078423425 -s 14 -d 24 -p DSR -e 64 -c 2 -a 0 -i 10 -k RTR
+ -t 15.079705818 -s 17 -d 20 -p DSR -e 72 -c 2 -a 0 -i 12 -k RTR 
- -t 15.079705818 -s 17 -d 20 -p DSR -e 72 -c 2 -a 0 -i 12 -k RTR
h -t 15.079705818 -s 17 -d 20 -p DSR -e 72 -c 2 -a 0 -i 12 -k RTR
+ -t 15.080082321 -s 16 -d 21 -p DSR -e 60 -c 2 -a 0 -i 9 -k RTR 
- -t 15.080082321 -s 16 -d 21 -p DSR -e 60 -c 2 -a 0 -i 9 -k RTR
h -t 15.080082321 -s 16 -d 21 -p DSR -e 60 -c 2 -a 0 -i 9 -k RTR
+ -t 15.084884781 -s 12 -d 6 -p DSR -e 60 -c 2 -a 0 -i 8 -k RTR 
- -t 15.084884781 -s 12 -d 6 -p DSR -e 60 -c 2 -a 0 -i 8 -k RTR
h -t 15.084884781 -s 12 -d 6 -p DSR -e 60 -c 2 -a 0 -i 8 -k RTR
+ -t 15.085034808 -s 16 -d 15 -p DSR -e 68 -c 2 -a 0 -i 14 -k RTR 
- -t 15.085034808 -s 16 -d 15 -p DSR -e 68 -c 2 -a 0 -i 14 -k RTR
h -t 15.085034808 -s 16 -d 15 -p DSR -e 68 -c 2 -a 0 -i 14 -k RTR
+ -t 15.085919718 -s 16 -d 19 -p DSR -e 68 -c 2 -a 0 -i 13 -k RTR 
- -t 15.085919718 -s 16 -d 19 -p DSR -e 68 -c 2 -a 0 -i 13 -k RTR
h -t 15.085919718 -s 16 -d 19 -p DSR -e 68 -c 2 -a 0 -i 13 -k RTR
+ -t 15.088361328 -s 16 -d 20 -p DSR -e 68 -c 2 -a 0 -i 11 -k RTR 
- -t 15.088361328 -s 16 -d 20 -p DSR -e 68 -c 2 -a 0 -i 11 -k RTR
h -t 15.088361328 -s 16 -d 20 -p DSR -e 68 -c 2 -a 0 -i 11 -k RTR
+ -t 15.090461729 -s 16 -d 13 -p DSR -e 68 -c 2 -a 0 -i 16 -k RTR 
- -t 15.090461729 -s 16 -d 13 -p DSR -e 68 -c 2 -a 0 -i 16 -k RTR
h -t 15.090461729 -s 16 -d 13 -p DSR -e 68 -c 2 -a 0 -i 16 -k RTR
+ -t 15.093700510 -s 0 -d 4 -p cbr -e 556 -c 2 -a 0 -i 0 -k RTR 
- -t 15.093700510 -s 0 -d 4 -p cbr -e 556 -c 2 -a 0 -i 0 -k RTR
h -t 15.093700510 -s 0 -d 4 -p cbr -e 556 -c 2 -a 0 -i 0 -k RTR
+ -t 15.096315072 -s 16 -d 10 -p DSR -e 60 -c 2 -a 0 -i 15 -k RTR 
- -t 15.096315072 -s 16 -d 10 -p DSR -e 60 -c 2 -a 0 -i 15 -k RTR
h -t 15.096315072 -s 16 -d 10 -p DSR -e 60 -c 2 -a 0 -i 15 -k RTR
+ -t 15.099299658 -s 16 -d 22 -p DSR -e 60 -c 2 -a 0 -i 17 -k RTR 
- -t 15.099299658 -s 16 -d 22 -p DSR -e 60 -c 2 -a 0 -i 17 -k RTR
h -t 15.099299658 -s 16 -d 22 -p DSR -e 60 -c 2 -a 0 -i 17 -k RTR
+ -t 15.102857412 -s 4 -d 23 -p cbr -e 556 -c 2 -a 0 -i 0 -k RTR 
- -t 15.102857412 -s 4 -d 23 -p cbr -e 556 -c 2 -a 0 -i 0 -k RTR
h -t 15.102857412 -s 4 -d 23 -p cbr -e 556 -c 2 -a 0 -i 0 -k RTR
+ -t 15.108963648 -s 23 -d 16 -p cbr -e 556 -c 2 -a 0 -i 0 -k RTR 
- -t 15.108963648 -s 23 -d 16 -p cbr -e 556 -c 2 -a 0 -i 0 -k RTR
h -t 15.108963648 -s 23 -d 16 -p cbr -e 556 -c 2 -a 0 -i 0 -k RTR
+ -t 15.111056236 -s 15 -d 23 -p DSR -e 68 -c 2 -a 0 -i 14 -k RTR 
- -t 15.111056236 -s 15 -d 23 -p DSR -e 68 -c 2 -a 0 -i 14 -k RTR
h -t 15.111056236 -s 15 -d 23 -p DSR -e 68 -c 2 -a 0 -i 14 -k RTR
r -t 15.119109884 -s 16 -d 16 -p cbr -e 512 -c 2 -a 0 -i 0 -k AGT
+ -t 15.121954884 -s 6 -d 0 -p DSR -e 60 -c 2 -a 0 -i 8 -k RTR 
- -t 15.121954884 -s 6 -d 0 -p DSR -e 60 -c 2 -a 0 -i 8 -k RTR
h -t 15.121954884 -s 6 -d 0 -p DSR -e 60 -c 2 -a 0 -i 8 -k RTR
+ -t 15.123700510 -s 0 -d 4 -p cbr -e 556 -c 2 -a 0 -i 3 -k RTR 
- -t 15.123700510 -s 0 -d 4 -p cbr -e 556 -c 2 -a 0 -i 3 -k RTR
h -t 15.123700510 -s 0 -d 4 -p cbr -e 556 -c 2 -a 0 -i 3 -k RTR
+ -t 15.132116579 -s 20 -d 7 -p DSR -e 72 -c 2 -a 0 -i 12 -k RTR 
- -t 15.132116579 -s 20 -d 7 -p DSR -e 72 -c 2 -a 0 -i 12 -k RTR
h -t 15.132116579 -s 20 -d 7 -p DSR -e 72 -c 2 -a 0 -i 12 -k RTR
+ -t 15.133822160 -s 0 -d -1 -p cbr -e 512 -c 2 -a 0 -i 18 -k AGT 
- -t 15.133822160 -s 0 -d -1 -p cbr -e 512 -c 2 -a 0 -i 18 -k AGT
h -t 15.133822160 -s 0 -d -1 -p cbr -e 512 -c 2 -a 0 -i 18 -k AGT
+ -t 15.133822160 -s 0 -d 4 -p cbr -e 556 -c 2 -a 0 -i 18 -k RTR 
- -t 15.133822160 -s 0 -d 4 -p cbr -e 556 -c 2 -a 0 -i 18 -k RTR
h -t 15.133822160 -s 0 -d 4 -p cbr -e 556 -c 2 -a 0 -i 18 -k RTR
+ -t 15.134155287 -s 22 -d 4 -p DSR -e 60 -c 2 -a 0 -i 17 -k RTR 
- -t 15.134155287 -s 22 -d 4 -p DSR -e 60 -c 2 -a 0 -i 17 -k RTR
h -t 15.134155287 -s 22 -d 4 -p DSR -e 60 -c 2 -a 0 -i 17 -k RTR
+ -t 15.136233523 -s 4 -d 0 -p DSR -e 60 -c 2 -a 0 -i 17 -k RTR 
- -t 15.136233523 -s 4 -d 0 -p DSR -e 60 -c 2 -a 0 -i 17 -k RTR
h -t 15.136233523 -s 4 -d 0 -p DSR -e 60 -c 2 -a 0 -i 17 -k RTR
+ -t 15.141861662 -s 23 -d 4 -p DSR -e 68 -c 2 -a 0 -i 14 -k RTR 
- -t 15.141861662 -s 23 -d 4 -p DSR -e 68 -c 2 -a 0 -i 14 -k RTR
h -t 15.141861662 -s 23 -d 4 -p DSR -e 68 -c 2 -a 0 -i 14 -k RTR
+ -t 15.144083898 -s 4 -d 0 -p DSR -e 68 -c 2 -a 0 -i 14 -k RTR 
- -t 15.144083898 -s 4 -d 0 -p DSR -e 68 -c 2 -a 0 -i 14 -k RTR
h -t 15.144083898 -s 4 -d 0 -p DSR -e 68 -c 2 -a 0 -i 14 -k RTR
+ -t 15.148626036 -s 7 -d 1 -p DSR -e 72 -c 2 -a 0 -i 12 -k RTR 
- -t 15.148626036 -s 7 -d 1 -p DSR -e 72 -c 2 -a 0 -i 12 -k RTR
h -t 15.148626036 -s 7 -d 1 -p DSR -e 72 -c 2 -a 0 -i 12 -k RTR
+ -t 15.151040036 -s 1 -d 0 -p DSR -e 72 -c 2 -a 0 -i 12 -k RTR 
- -t 15.151040036 -s 1 -d 0 -p DSR -e 72 -c 2 -a 0 -i 12 -k RTR
h -t 15.151040036 -s 1 -d 0 -p DSR -e 72 -c 2 -a 0 -i 12 -k RTR
+ -t 15.161894265 -s 10 -d 4 -p DSR -e 60 -c 2 -a 0 -i 15 -k RTR 
- -t 15.161894265 -s 10 -d 4 -p DSR -e 60 -c 2 -a 0 -i 15 -k RTR
h -t 15.161894265 -s 10 -d 4 -p DSR -e 60 -c 2 -a 0 -i 15 -k RTR
+ -t 15.163872265 -s 4 -d 0 -p DSR -e 60 -c 2 -a 0 -i 15 -k RTR 
- -t 15.163872265 -s 4 -d 0 -p DSR -e 60 -c 2 -a 0 -i 15 -k RTR
h -t 15.163872265 -s 4 -d 0 -p DSR -e 60 -c 2 -a 0 -i 15 -k RTR
+ -t 15.164947066 -s 0 -d -1 -p cbr -e 512 -c 2 -a 0 -i 19 -k AGT 
- -t 15.164947066 -s 0 -d -1 -p cbr -e 512 -c 2 -a 0 -i 19 -k AGT
h -t 15.164947066 -s 0 -d -1 -p cbr -e 512 -c 2 -a 0 -i 19 -k AGT
+ -t 15.164947066 -s 0 -d 4 -p cbr -e 532 -c 2 -a 0 -i 19 -k RTR 
- -t 15.164947066 -s 0 -d 4 -p cbr -e 532 -c 2 -a 0 -i 19 -k RTR
h -t 15.164947066 -s 0 -d 4 -p cbr -e 532 -c 2 -a 0 -i 19 -k RTR
+ -t 15.168211194 -s 24 -d 1 -p DSR -e 64 -c 2 -a 0 -i 10 -k RTR 
- -t 15.168211194 -s 24 -d 1 -p DSR -e 64 -c 2 -a 0 -i 10 -k RTR
h -t 15.168211194 -s 24 -d 1 -p DSR -e 64 -c 2 -a 0 -i 10 -k RTR
+ -t 15.170461430 -s 1 -d 0 -p DSR -e 64 -c 2 -a 0 -i 10 -k RTR 
- -t 15.170461430 -s 1 -d 0 -p DSR -e 64 -c 2 -a 0 -i 10 -k RTR
h -t 15.170461430 -s 1 -d 0 -p DSR -e 64 -c 2 -a 0 -i 10 -k RTR
+ -t 15.175718225 -s 13 -d 7 -p DSR -e 68 -c 2 -a 0 -i 16 -k RTR 
- -t 15.175718225 -s 13 -d 7 -p DSR -e 68 -c 2 -a 0 -i 16 -k RTR
h -t 15.175718225 -s 13 -d 7 -p DSR -e 68 -c 2 -a 0 -i 16 -k RTR
+ -t 15.177759972 -s 20 -d 7 -p DSR -e 68 -c 2 -a 0 -i 11 -k RTR 
- -t 15.177759972 -s 20 -d 7 -p DSR -e 68 -c 2 -a 0 -i 11 -k RTR
h -t 15.177759972 -s 20 -d 7 -p DSR -e 68 -c 2 -a 0 -i 11 -k RTR
+ -t 15.179862306 -s 7 -d 1 -p DSR -e 68 -c 2 -a 0 -i 16 -k RTR 
- -t 15.179862306 -s 7 -d 1 -p DSR -e 68 -c 2 -a 0 -i 16 -k RTR
h -t 15.179862306 -s 7 -d 1 -p DSR -e 68 -c 2 -a 0 -i 16 -k RTR
+ -t 15.181905287 -s 7 -d 1 -p DSR -e 68 -c 2 -a 0 -i 11 -k RTR 
- -t 15.181905287 -s 7 -d 1 -p DSR -e 68 -c 2 -a 0 -i 11 -k RTR
h -t 15.181905287 -s 7 -d 1 -p DSR -e 68 -c 2 -a 0 -i 11 -k RTR
+ -t 15.184007287 -s 1 -d 0 -p DSR -e 68 -c 2 -a 0 -i 16 -k RTR 
- -t 15.184007287 -s 1 -d 0 -p DSR -e 68 -c 2 -a 0 -i 16 -k RTR
h -t 15.184007287 -s 1 -d 0 -p DSR -e 68 -c 2 -a 0 -i 16 -k RTR
+ -t 15.186029954 -s 1 -d 0 -p DSR -e 68 -c 2 -a 0 -i 11 -k RTR 
- -t 15.186029954 -s 1 -d 0 -p DSR -e 68 -c 2 -a 0 -i 11 -k RTR
h -t 15.186029954 -s 1 -d 0 -p DSR -e 68 -c 2 -a 0 -i 11 -k RTR
+ -t 15.194378190 -s 4 -d 23 -p cbr -e 556 -c 2 -a 0 -i 3 -k RTR 
- -t 15.194378190 -s 4 -d 23 -p cbr -e 556 -c 2 -a 0 -i 3 -k RTR
h -t 15.194378190 -s 4 -d 23 -p cbr -e 556 -c 2 -a 0 -i 3 -k RTR
+ -t 15.200444426 -s 23 -d 16 -p cbr -e 556 -c 2 -a 0 -i 3 -k RTR 
- -t 15.200444426 -s 23 -d 16 -p cbr -e 556 -c 2 -a 0 -i 3 -k RTR
h -t 15.200444426 -s 23 -d 16 -p cbr -e 556 -c 2 -a 0 -i 3 -k RTR
+ -t 15.202796014 -s 19 -d 23 -p DSR -e 68 -c 2 -a 0 -i 13 -k RTR 
- -t 15.202796014 -s 19 -d 23 -p DSR -e 68 -c 2 -a 0 -i 13 -k RTR
h -t 15.202796014 -s 19 -d 23 -p DSR -e 68 -c 2 -a 0 -i 13 -k RTR
r -t 15.208922917 -s 16 -d 16 -p cbr -e 512 -c 2 -a 0 -i 3 -k AGT
+ -t 15.211185250 -s 23 -d 4 -p DSR -e 68 -c 2 -a 0 -i 13 -k RTR 
- -t 15.211185250 -s 23 -d 4 -p DSR -e 68 -c 2 -a 0 -i 13 -k RTR
h -t 15.211185250 -s 23 -d 4 -p DSR -e 68 -c 2 -a 0 -i 13 -k RTR
+ -t 15.213143409 -s 21 -d 6 -p DSR -e 60 -c 2 -a 0 -i 9 -k RTR 
- -t 15.213143409 -s 21 -d 6 -p DSR -e 60 -c 2 -a 0 -i 9 -k RTR
h -t 15.213143409 -s 21 -d 6 -p DSR -e 60 -c 2 -a 0 -i 9 -k RTR
+ -t 15.215161646 -s 6 -d 0 -p DSR -e 60 -c 2 -a 0 -i 9 -k RTR 
- -t 15.215161646 -s 6 -d 0 -p DSR -e 60 -c 2 -a 0 -i 9 -k RTR
h -t 15.215161646 -s 6 -d 0 -p DSR -e 60 -c 2 -a 0 -i 9 -k RTR
+ -t 15.221498511 -s 4 -d 23 -p cbr -e 556 -c 2 -a 0 -i 18 -k RTR 
- -t 15.221498511 -s 4 -d 23 -p cbr -e 556 -c 2 -a 0 -i 18 -k RTR
h -t 15.221498511 -s 4 -d 23 -p cbr -e 556 -c 2 -a 0 -i 18 -k RTR
+ -t 15.231303768 -s 4 -d 23 -p cbr -e 532 -c 2 -a 0 -i 19 -k RTR 
- -t 15.231303768 -s 4 -d 23 -p cbr -e 532 -c 2 -a 0 -i 19 -k RTR
h -t 15.231303768 -s 4 -d 23 -p cbr -e 532 -c 2 -a 0 -i 19 -k RTR
+ -t 15.233297759 -s 0 -d -1 -p cbr -e 512 -c 2 -a 0 -i 20 -k AGT 
- -t 15.233297759 -s 0 -d -1 -p cbr -e 512 -c 2 -a 0 -i 20 -k AGT
h -t 15.233297759 -s 0 -d -1 -p cbr -e 512 -c 2 -a 0 -i 20 -k AGT
+ -t 15.233297759 -s 0 -d 4 -p cbr -e 532 -c 2 -a 0 -i 20 -k RTR 
- -t 15.233297759 -s 0 -d 4 -p cbr -e 532 -c 2 -a 0 -i 20 -k RTR
h -t 15.233297759 -s 0 -d 4 -p cbr -e 532 -c 2 -a 0 -i 20 -k RTR
+ -t 15.233396313 -s 4 -d 0 -p DSR -e 68 -c 2 -a 0 -i 13 -k RTR 
- -t 15.233396313 -s 4 -d 0 -p DSR -e 68 -c 2 -a 0 -i 13 -k RTR
h -t 15.233396313 -s 4 -d 0 -p DSR -e 68 -c 2 -a 0 -i 13 -k RTR
+ -t 15.239260858 -s 4 -d 23 -p cbr -e 532 -c 2 -a 0 -i 20 -k RTR 
- -t 15.239260858 -s 4 -d 23 -p cbr -e 532 -c 2 -a 0 -i 20 -k RTR
h -t 15.239260858 -s 4 -d 23 -p cbr -e 532 -c 2 -a 0 -i 20 -k RTR
+ -t 15.245287094 -s 23 -d 16 -p cbr -e 556 -c 2 -a 0 -i 18 -k RTR 
- -t 15.245287094 -s 23 -d 16 -p cbr -e 556 -c 2 -a 0 -i 18 -k RTR
h -t 15.245287094 -s 23 -d 16 -p cbr -e 556 -c 2 -a 0 -i 18 -k RTR
r -t 15.251213330 -s 16 -d 16 -p cbr -e 512 -c 2 -a 0 -i 18 -k AGT
+ -t 15.260075881 -s 23 -d 16 -p cbr -e 532 -c 2 -a 0 -i 19 -k RTR 
- -t 15.260075881 -s 23 -d 16 -p cbr -e 532 -c 2 -a 0 -i 19 -k RTR
h -t 15.260075881 -s 23 -d 16 -p cbr -e 532 -c 2 -a 0 -i 19 -k RTR
r -t 15.266130117 -s 16 -d 16 -p cbr -e 512 -c 2 -a 0 -i 19 -k AGT
+ -t 15.272489686 -s 23 -d 16 -p cbr -e 532 -c 2 -a 0 -i 20 -k RTR 
- -t 15.272489686 -s 23 -d 16 -p cbr -e 532 -c 2 -a 0 -i 20 -k RTR
h -t 15.272489686 -s 23 -d 16 -p cbr -e 532 -c 2 -a 0 -i 20 -k RTR
r -t 15.278783922 -s 16 -d 16 -p cbr -e 512 -c 2 -a 0 -i 20 -k AGT
+ -t 15.290508314 -s 0 -d -1 -p cbr -e 512 -c 2 -a 0 -i 21 -k AGT 
- -t 15.290508314 -s 0 -d -1 -p cbr -e 512 -c 2 -a 0 -i 21 -k AGT
h -t 15.290508314 -s 0 -d -1 -p cbr -e 512 -c 2 -a 0 -i 21 -k AGT
+ -t 15.290508314 -s 0 -d 4 -p cbr -e 532 -c 2 -a 0 -i 21 -k RTR 
- -t 15.290508314 -s 0 -d 4 -p cbr -e 532 -c 2 -a 0 -i 21 -k RTR
h -t 15.290508314 -s 0 -d 4 -p cbr -e 532 -c 2 -a 0 -i 21 -k RTR
+ -t 15.296538550 -s 4 -d 23 -p cbr -e 532 -c 2 -a 0 -i 21 -k RTR 
- -t 15.296538550 -s 4 -d 23 -p cbr -e 532 -c 2 -a 0 -i 21 -k RTR
h -t 15.296538550 -s 4 -d 23 -p cbr -e 532 -c 2 -a 0 -i 21 -k RTR
+ -t 15.302432786 -s 23 -d 16 -p cbr -e 532 -c 2 -a 0 -i 21 -k RTR 
- -t 15.302432786 -s 23 -d 16 -p cbr -e 532 -c 2 -a 0 -i 21 -k RTR
h -t 15.302432786 -s 23 -d 16 -p cbr -e 532 -c 2 -a 0 -i 21 -k RTR
r -t 15.308647022 -s 16 -d 16 -p cbr -e 512 -c 2 -a 0 -i 21 -k AGT
+ -t 15.363836378 -s 0 -d -1 -p cbr -e 512 -c 2 -a 0 -i 22 -k AGT 
- -t 15.363836378 -s 0 -d -1 -p cbr -e 512 -c 2 -a 0 -i 22 -k AGT
h -t 15.363836378 -s 0 -d -1 -p cbr -e 512 -c 2 -a 0 -i 22 -k AGT
+ -t 15.363836378 -s 0 -d 4 -p cbr -e 532 -c 2 -a 0 -i 22 -k RTR 
- -t 15.363836378 -s 0 -d 4 -p cbr -e 532 -c 2 -a 0 -i 22 -k RTR
h -t 15.363836378 -s 0 -d 4 -p cbr -e 532 -c 2 -a 0 -i 22 -k RTR
+ -t 15.369646614 -s 4 -d 23 -p cbr -e 532 -c 2 -a 0 -i 22 -k RTR 
- -t 15.369646614 -s 4 -d 23 -p cbr -e 532 -c 2 -a 0 -i 22 -k RTR
h -t 15.369646614 -s 4 -d 23 -p cbr -e 532 -c 2 -a 0 -i 22 -k RTR
+ -t 15.375640850 -s 23 -d 16 -p cbr -e 532 -c 2 -a 0 -i 22 -k RTR 
- -t 15.375640850 -s 23 -d 16 -p cbr -e 532 -c 2 -a 0 -i 22 -k RTR
h -t 15.375640850 -s 23 -d 16 -p cbr -e 532 -c 2 -a 0 -i 22 -k RTR
r -t 15.381915086 -s 16 -d 16 -p cbr -e 512 -c 2 -a 0 -i 22 -k AGT
+ -t 15.412525727 -s 0 -d -1 -p cbr -e 512 -c 2 -a 0 -i 23 -k AGT 
- -t 15.412525727 -s 0 -d -1 -p cbr -e 512 -c 2 -a 0 -i 23 -k AGT
h -t 15.412525727 -s 0 -d -1 -p cbr -e 512 -c 2 -a 0 -i 23 -k AGT
+ -t 15.412525727 -s 0 -d 4 -p cbr -e 532 -c 2 -a 0 -i 23 -k RTR 
- -t 15.412525727 -s 0 -d 4 -p cbr -e 532 -c 2 -a 0 -i 23 -k RTR
h -t 15.412525727 -s 0 -d 4 -p cbr -e 532 -c 2 -a 0 -i 23 -k RTR
+ -t 15.418195963 -s 4 -d 23 -p cbr -e 532 -c 2 -a 0 -i 23 -k RTR 
- -t 15.418195963 -s 4 -d 23 -p cbr -e 532 -c 2 -a 0 -i 23 -k RTR
h -t 15.418195963 -s 4 -d 23 -p cbr -e 532 -c 2 -a 0 -i 23 -k RTR
+ -t 15.424450199 -s 23 -d 16 -p cbr -e 532 -c 2 -a 0 -i 23 -k RTR 
- -t 15.424450199 -s 23 -d 16 -p cbr -e 532 -c 2 -a 0 -i 23 -k RTR
h -t 15.424450199 -s 23 -d 16 -p cbr -e 532 -c 2 -a 0 -i 23 -k RTR
r -t 15.430664435 -s 16 -d 16 -p cbr -e 512 -c 2 -a 0 -i 23 -k AGT
+ -t 15.486371419 -s 0 -d -1 -p cbr -e 512 -c 2 -a 0 -i 24 -k AGT 
- -t 15.486371419 -s 0 -d -1 -p cbr -e 512 -c 2 -a 0 -i 24 -k AGT
h -t 15.486371419 -s 0 -d -1 -p cbr -e 512 -c 2 -a 0 -i 24 -k AGT
+ -t 15.486371419 -s 0 -d 4 -p cbr -e 532 -c 2 -a 0 -i 24 -k RTR 
- -t 15.486371419 -s 0 -d 4 -p cbr -e 532 -c 2 -a 0 -i 24 -k RTR
h -t 15.486371419 -s 0 -d 4 -p cbr -e 532 -c 2 -a 0 -i 24 -k RTR
+ -t 15.491961655 -s 4 -d 23 -p cbr -e 532 -c 2 -a 0 -i 24 -k RTR 
- -t 15.491961655 -s 4 -d 23 -p cbr -e 532 -c 2 -a 0 -i 24 -k RTR
h -t 15.491961655 -s 4 -d 23 -p cbr -e 532 -c 2 -a 0 -i 24 -k RTR
+ -t 15.498015891 -s 23 -d 16 -p cbr -e 532 -c 2 -a 0 -i 24 -k RTR 
- -t 15.498015891 -s 23 -d 16 -p cbr -e 532 -c 2 -a 0 -i 24 -k RTR
h -t 15.498015891 -s 23 -d 16 -p cbr -e 532 -c 2 -a 0 -i 24 -k RTR
r -t 15.504030127 -s 16 -d 16 -p cbr -e 512 -c 2 -a 0 -i 24 -k AGT
+ -t 15.554398217 -s 0 -d -1 -p cbr -e 512 -c 2 -a 0 -i 25 -k AGT 
- -t 15.554398217 -s 0 -d -1 -p cbr -e 512 -c 2 -a 0 -i 25 -k AGT
h -t 15.554398217 -s 0 -d -1 -p cbr -e 512 -c 2 -a 0 -i 25 -k AGT
+ -t 15.554398217 -s 0 -d 4 -p cbr -e 532 -c 2 -a 0 -i 25 -k RTR 
- -t 15.554398217 -s 0 -d 4 -p cbr -e 532 -c 2 -a 0 -i 25 -k RTR
h -t 15.554398217 -s 0 -d 4 -p cbr -e 532 -c 2 -a 0 -i 25 -k RTR
+ -t 15.559928453 -s 4 -d 23 -p cbr -e 532 -c 2 -a 0 -i 25 -k RTR 
- -t 15.559928453 -s 4 -d 23 -p cbr -e 532 -c 2 -a 0 -i 25 -k RTR
h -t 15.559928453 -s 4 -d 23 -p cbr -e 532 -c 2 -a 0 -i 25 -k RTR
+ -t 15.565802689 -s 23 -d 16 -p cbr -e 532 -c 2 -a 0 -i 25 -k RTR 
- -t 15.565802689 -s 23 -d 16 -p cbr -e 532 -c 2 -a 0 -i 25 -k RTR
h -t 15.565802689 -s 23 -d 16 -p cbr -e 532 -c 2 -a 0 -i 25 -k RTR
r -t 15.572056925 -s 16 -d 16 -p cbr -e 512 -c 2 -a 0 -i 25 -k AGT
+ -t 15.591719996 -s 0 -d -1 -p cbr -e 512 -c 2 -a 0 -i 26 -k AGT 
- -t 15.591719996 -s 0 -d -1 -p cbr -e 512 -c 2 -a 0 -i 26 -k AGT
h -t 15.591719996 -s 0 -d -1 -p cbr -e 512 -c 2 -a 0 -i 26 -k AGT
+ -t 15.591719996 -s 0 -d 4 -p cbr -e 532 -c 2 -a 0 -i 26 -k RTR 
- -t 15.591719996 -s 0 -d 4 -p cbr -e 532 -c 2 -a 0 -i 26 -k RTR
h -t 15.591719996 -s 0 -d 4 -p cbr -e 532 -c 2 -a 0 -i 26 -k RTR
+ -t 15.597650232 -s 4 -d 23 -p cbr -e 532 -c 2 -a 0 -i 26 -k RTR 
- -t 15.597650232 -s 4 -d 23 -p cbr -e 532 -c 2 -a 0 -i 26 -k RTR
h -t 15.597650232 -s 4 -d 23 -p cbr -e 532 -c 2 -a 0 -i 26 -k RTR
+ -t 15.603564469 -s 23 -d 16 -p cbr -e 532 -c 2 -a 0 -i 26 -k RTR 
- -t 15.603564469 -s 23 -d 16 -p cbr -e 532 -c 2 -a 0 -i 26 -k RTR
h -t 15.603564469 -s 23 -d 16 -p cbr -e 532 -c 2 -a 0 -i 26 -k RTR
r -t 15.609538705 -s 16 -d 16 -p cbr -e 512 -c 2 -a 0 -i 26 -k AGT
+ -t 15.622151143 -s 0 -d -1 -p cbr -e 512 -c 2 -a 0 -i 27 -k AGT 
- -t 15.622151143 -s 0 -d -1 -p cbr -e 512 -c 2 -a 0 -i 27 -k AGT
h -t 15.622151143 -s 0 -d -1 -p cbr -e 512 -c 2 -a 0 -i 27 -k AGT
+ -t 15.622151143 -s 0 -d 4 -p cbr -e 532 -c 2 -a 0 -i 27 -k RTR 
- -t 15.622151143 -s 0 -d 4 -p cbr -e 532 -c 2 -a 0 -i 27 -k RTR
h -t 15.622151143 -s 0 -d 4 -p cbr -e 532 -c 2 -a 0 -i 27 -k RTR
+ -t 15.627881379 -s 4 -d 23 -p cbr -e 532 -c 2 -a 0 -i 27 -k RTR 
- -t 15.627881379 -s 4 -d 23 -p cbr -e 532 -c 2 -a 0 -i 27 -k RTR
h -t 15.627881379 -s 4 -d 23 -p cbr -e 532 -c 2 -a 0 -i 27 -k RTR
+ -t 15.633895615 -s 23 -d 16 -p cbr -e 532 -c 2 -a 0 -i 27 -k RTR 
- -t 15.633895615 -s 23 -d 16 -p cbr -e 532 -c 2 -a 0 -i 27 -k RTR
h -t 15.633895615 -s 23 -d 16 -p cbr -e 532 -c 2 -a 0 -i 27 -k RTR
r -t 15.639969851 -s 16 -d 16 -p cbr -e 512 -c 2 -a 0 -i 27 -k AGT
+ -t 15.681360513 -s 0 -d -1 -p cbr -e 512 -c 2 -a 0 -i 28 -k AGT 
- -t 15.681360513 -s 0 -d -1 -p cbr -e 512 -c 2 -a 0 -i 28 -k AGT
h -t 15.681360513 -s 0 -d -1 -p cbr -e 512 -c 2 -a 0 -i 28 -k AGT
+ -t 15.681360513 -s 0 -d 4 -p cbr -e 532 -c 2 -a 0 -i 28 -k RTR 
- -t 15.681360513 -s 0 -d 4 -p cbr -e 532 -c 2 -a 0 -i 28 -k RTR
h -t 15.681360513 -s 0 -d 4 -p cbr -e 532 -c 2 -a 0 -i 28 -k RTR
+ -t 15.687150749 -s 4 -d 23 -p cbr -e 532 -c 2 -a 0 -i 28 -k RTR 
- -t 15.687150749 -s 4 -d 23 -p cbr -e 532 -c 2 -a 0 -i 28 -k RTR
h -t 15.687150749 -s 4 -d 23 -p cbr -e 532 -c 2 -a 0 -i 28 -k RTR
+ -t 15.693164985 -s 23 -d 16 -p cbr -e 532 -c 2 -a 0 -i 28 -k RTR 
- -t 15.693164985 -s 23 -d 16 -p cbr -e 532 -c 2 -a 0 -i 28 -k RTR
h -t 15.693164985 -s 23 -d 16 -p cbr -e 532 -c 2 -a 0 -i 28 -k RTR
r -t 15.699279221 -s 16 -d 16 -p cbr -e 512 -c 2 -a 0 -i 28 -k AGT
+ -t 15.732764675 -s 0 -d -1 -p cbr -e 512 -c 2 -a 0 -i 29 -k AGT 
- -t 15.732764675 -s 0 -d -1 -p cbr -e 512 -c 2 -a 0 -i 29 -k AGT
h -t 15.732764675 -s 0 -d -1 -p cbr -e 512 -c 2 -a 0 -i 29 -k AGT
+ -t 15.732764675 -s 0 -d 4 -p cbr -e 532 -c 2 -a 0 -i 29 -k RTR 
- -t 15.732764675 -s 0 -d 4 -p cbr -e 532 -c 2 -a 0 -i 29 -k RTR
h -t 15.732764675 -s 0 -d 4 -p cbr -e 532 -c 2 -a 0 -i 29 -k RTR
+ -t 15.738434911 -s 4 -d 23 -p cbr -e 532 -c 2 -a 0 -i 29 -k RTR 
- -t 15.738434911 -s 4 -d 23 -p cbr -e 532 -c 2 -a 0 -i 29 -k RTR
h -t 15.738434911 -s 4 -d 23 -p cbr -e 532 -c 2 -a 0 -i 29 -k RTR
+ -t 15.744429147 -s 23 -d 16 -p cbr -e 532 -c 2 -a 0 -i 29 -k RTR 
- -t 15.744429147 -s 23 -d 16 -p cbr -e 532 -c 2 -a 0 -i 29 -k RTR
h -t 15.744429147 -s 23 -d 16 -p cbr -e 532 -c 2 -a 0 -i 29 -k RTR
r -t 15.750283383 -s 16 -d 16 -p cbr -e 512 -c 2 -a 0 -i 29 -k AGT
+ -t 15.784171397 -s 0 -d -1 -p cbr -e 512 -c 2 -a 0 -i 30 -k AGT 
- -t 15.784171397 -s 0 -d -1 -p cbr -e 512 -c 2 -a 0 -i 30 -k AGT
h -t 15.784171397 -s 0 -d -1 -p cbr -e 512 -c 2 -a 0 -i 30 -k AGT
+ -t 15.784171397 -s 0 -d 4 -p cbr -e 532 -c 2 -a 0 -i 30 -k RTR 
- -t 15.784171397 -s 0 -d 4 -p cbr -e 532 -c 2 -a 0 -i 30 -k RTR
h -t 15.784171397 -s 0 -d 4 -p cbr -e 532 -c 2 -a 0 -i 30 -k RTR
+ -t 15.789921633 -s 4 -d 23 -p cbr -e 532 -c 2 -a 0 -i 30 -k RTR 
- -t 15.789921633 -s 4 -d 23 -p cbr -e 532 -c 2 -a 0 -i 30 -k RTR
h -t 15.789921633 -s 4 -d 23 -p cbr -e 532 -c 2 -a 0 -i 30 -k RTR
+ -t 15.795855869 -s 23 -d 16 -p cbr -e 532 -c 2 -a 0 -i 30 -k RTR 
- -t 15.795855869 -s 23 -d 16 -p cbr -e 532 -c 2 -a 0 -i 30 -k RTR
h -t 15.795855869 -s 23 -d 16 -p cbr -e 532 -c 2 -a 0 -i 30 -k RTR
r -t 15.801590105 -s 16 -d 16 -p cbr -e 512 -c 2 -a 0 -i 30 -k AGT
+ -t 15.846717415 -s 0 -d -1 -p cbr -e 512 -c 2 -a 0 -i 31 -k AGT 
- -t 15.846717415 -s 0 -d -1 -p cbr -e 512 -c 2 -a 0 -i 31 -k AGT
h -t 15.846717415 -s 0 -d -1 -p cbr -e 512 -c 2 -a 0 -i 31 -k AGT
+ -t 15.846717415 -s 0 -d 4 -p cbr -e 532 -c 2 -a 0 -i 31 -k RTR 
- -t 15.846717415 -s 0 -d 4 -p cbr -e 532 -c 2 -a 0 -i 31 -k RTR
h -t 15.846717415 -s 0 -d 4 -p cbr -e 532 -c 2 -a 0 -i 31 -k RTR
+ -t 15.852247651 -s 4 -d 23 -p cbr -e 532 -c 2 -a 0 -i 31 -k RTR 
- -t 15.852247651 -s 4 -d 23 -p cbr -e 532 -c 2 -a 0 -i 31 -k RTR
h -t 15.852247651 -s 4 -d 23 -p cbr -e 532 -c 2 -a 0 -i 31 -k RTR
+ -t 15.858001887 -s 23 -d 16 -p cbr -e 532 -c 2 -a 0 -i 31 -k RTR 
- -t 15.858001887 -s 23 -d 16 -p cbr -e 532 -c 2 -a 0 -i 31 -k RTR
h -t 15.858001887 -s 23 -d 16 -p cbr -e 532 -c 2 -a 0 -i 31 -k RTR
r -t 15.864156123 -s 16 -d 16 -p cbr -e 512 -c 2 -a 0 -i 31 -k AGT
+ -t 15.901405926 -s 0 -d -1 -p cbr -e 512 -c 2 -a 0 -i 32 -k AGT 
- -t 15.901405926 -s 0 -d -1 -p cbr -e 512 -c 2 -a 0 -i 32 -k AGT
h -t 15.901405926 -s 0 -d -1 -p cbr -e 512 -c 2 -a 0 -i 32 -k AGT
+ -t 15.901405926 -s 0 -d 4 -p cbr -e 532 -c 2 -a 0 -i 32 -k RTR 
- -t 15.901405926 -s 0 -d 4 -p cbr -e 532 -c 2 -a 0 -i 32 -k RTR
h -t 15.901405926 -s 0 -d 4 -p cbr -e 532 -c 2 -a 0 -i 32 -k RTR
+ -t 15.906996162 -s 4 -d 23 -p cbr -e 532 -c 2 -a 0 -i 32 -k RTR 
- -t 15.906996162 -s 4 -d 23 -p cbr -e 532 -c 2 -a 0 -i 32 -k RTR
h -t 15.906996162 -s 4 -d 23 -p cbr -e 532 -c 2 -a 0 -i 32 -k RTR
+ -t 15.913290399 -s 23 -d 16 -p cbr -e 532 -c 2 -a 0 -i 32 -k RTR 
- -t 15.913290399 -s 23 -d 16 -p cbr -e 532 -c 2 -a 0 -i 32 -k RTR
h -t 15.913290399 -s 23 -d 16 -p cbr -e 532 -c 2 -a 0 -i 32 -k RTR
r -t 15.919564635 -s 16 -d 16 -p cbr -e 512 -c 2 -a 0 -i 32 -k AGT
+ -t 15.960543977 -s 0 -d -1 -p cbr -e 512 -c 2 -a 0 -i 33 -k AGT 
- -t 15.960543977 -s 0 -d -1 -p cbr -e 512 -c 2 -a 0 -i 33 -k AGT
h -t 15.960543977 -s 0 -d -1 -p cbr -e 512 -c 2 -a 0 -i 33 -k AGT
+ -t 15.960543977 -s 0 -d 4 -p cbr -e 532 -c 2 -a 0 -i 33 -k RTR 
- -t 15.960543977 -s 0 -d 4 -p cbr -e 532 -c 2 -a 0 -i 33 -k RTR
h -t 15.960543977 -s 0 -d 4 -p cbr -e 532 -c 2 -a 0 -i 33 -k RTR
+ -t 15.966234213 -s 4 -d 23 -p cbr -e 532 -c 2 -a 0 -i 33 -k RTR 
- -t 15.966234213 -s 4 -d 23 -p cbr -e 532 -c 2 -a 0 -i 33 -k RTR
h -t 15.966234213 -s 4 -d 23 -p cbr -e 532 -c 2 -a 0 -i 33 -k RTR
+ -t 15.972408449 -s 23 -d 16 -p cbr -e 532 -c 2 -a 0 -i 33 -k RTR 
- -t 15.972408449 -s 23 -d 16 -p cbr -e 532 -c 2 -a 0 -i 33 -k RTR
h -t 15.972408449 -s 23 -d 16 -p cbr -e 532 -c 2 -a 0 -i 33 -k RTR
r -t 15.978522685 -s 16 -d 16 -p cbr -e 512 -c 2 -a 0 -i 33 -k AGT
+ -t 15.993894717 -s 0 -d -1 -p cbr -e 512 -c 2 -a 0 -i 34 -k AGT 
- -t 15.993894717 -s 0 -d -1 -p cbr -e 512 -c 2 -a 0 -i 34 -k AGT
h -t 15.993894717 -s 0 -d -1 -p cbr -e 512 -c 2 -a 0 -i 34 -k AGT
+ -t 15.993894717 -s 0 -d 4 -p cbr -e 532 -c 2 -a 0 -i 34 -k RTR 
- -t 15.993894717 -s 0 -d 4 -p cbr -e 532 -c 2 -a 0 -i 34 -k RTR
h -t 15.993894717 -s 0 -d 4 -p cbr -e 532 -c 2 -a 0 -i 34 -k RTR
+ -t 15.999844953 -s 4 -d 23 -p cbr -e 532 -c 2 -a 0 -i 34 -k RTR 
- -t 15.999844953 -s 4 -d 23 -p cbr -e 532 -c 2 -a 0 -i 34 -k RTR
h -t 15.999844953 -s 4 -d 23 -p cbr -e 532 -c 2 -a 0 -i 34 -k RTR
+ -t 16.005979189 -s 23 -d 16 -p cbr -e 532 -c 2 -a 0 -i 34 -k RTR 
- -t 16.005979189 -s 23 -d 16 -p cbr -e 532 -c 2 -a 0 -i 34 -k RTR
h -t 16.005979189 -s 23 -d 16 -p cbr -e 532 -c 2 -a 0 -i 34 -k RTR
r -t 16.011813425 -s 16 -d 16 -p cbr -e 512 -c 2 -a 0 -i 34 -k AGT
+ -t 16.019452324 -s 0 -d -1 -p cbr -e 512 -c 2 -a 0 -i 35 -k AGT 
- -t 16.019452324 -s 0 -d -1 -p cbr -e 512 -c 2 -a 0 -i 35 -k AGT