s 0.000000000 _0_ RTR  --- 0 AODV 44 [0 0 0 0] ------- [0:255 -1:255 1 0] [0x1 1 [0 2] 4.000000] (HELLO)
s 0.000000000 _1_ RTR  --- 0 AODV 44 [0 0 0 0] ------- [1:255 -1:255 1 0] [0x1 1 [1 2] 4.000000] (HELLO)
s 0.000000000 _2_ RTR  --- 0 AODV 44 [0 0 0 0] ------- [2:255 -1:255 1 0] [0x1 1 [2 2] 4.000000] (HELLO)
s 0.000000000 _3_ RTR  --- 0 AODV 44 [0 0 0 0] ------- [3:255 -1:255 1 0] [0x1 1 [3 2] 4.000000] (HELLO)
s 0.000000000 _4_ RTR  --- 0 AODV 44 [0 0 0 0] ------- [4:255 -1:255 1 0] [0x1 1 [4 2] 4.000000] (HELLO)
s 0.000000000 _5_ RTR  --- 0 AODV 44 [0 0 0 0] ------- [5:255 -1:255 1 0] [0x1 1 [5 2] 4.000000] (HELLO)
s 0.000000000 _6_ RTR  --- 0 AODV 44 [0 0 0 0] ------- [6:255 -1:255 1 0] [0x1 1 [6 2] 4.000000] (HELLO)
s 0.000000000 _7_ RTR  --- 0 AODV 44 [0 0 0 0] ------- [7:255 -1:255 1 0] [0x1 1 [7 2] 4.000000] (HELLO)
s 0.000000000 _8_ RTR  --- 0 AODV 44 [0 0 0 0] ------- [8:255 -1:255 1 0] [0x1 1 [8 2] 4.000000] (HELLO)
s 0.000000000 _9_ RTR  --- 0 AODV 44 [0 0 0 0] ------- [9:255 -1:255 1 0] [0x1 1 [9 2] 4.000000] (HELLO)
r 0.000908333 _9_ RTR  --- 0 AODV 44 [0 ffffffff 2 800] ------- [2:255 -1:255 1 0] [0x1 1 [2 2] 4.000000] (HELLO)
s 0.000908333 _9_ RTR  --- 0 AODV 26 [0 0 0 0] ------- [9:255 2:255 1 2] [0x12 0 [1776105039 1045341170] 0.000000] (HELLO)
r 0.000908667 _1_ RTR  --- 0 AODV 44 [0 ffffffff 2 800] ------- [2:255 -1:255 1 0] [0x1 1 [2 2] 4.000000] (HELLO)
r 0.000908667 _5_ RTR  --- 0 AODV 44 [0 ffffffff 2 800] ------- [2:255 -1:255 1 0] [0x1 1 [2 2] 4.000000] (HELLO)
s 0.000908667 _1_ RTR  --- 0 AODV 26 [0 0 0 0] ------- [1:255 2:255 1 2] [0x12 0 [1776105039 1041146866] 0.000000] (HELLO)
s 0.000908667 _5_ RTR  --- 0 AODV 26 [0 0 0 0] ------- [5:255 2:255 1 2] [0x12 0 [1776105039 1041146866] 0.000000] (HELLO)
r 0.002411333 _4_ RTR  --- 0 AODV 44 [0 ffffffff 7 800] ------- [7:255 -1:255 1 0] [0x1 1 [7 2] 4.000000] (HELLO)
s 0.002411333 _4_ RTR  --- 0 AODV 26 [0 0 0 0] ------- [4:255 7:255 1 7] [0x12 0 [1776105039 1041146866] 0.000000] (HELLO)
r 0.002411609 _1_ RTR  --- 0 AODV 44 [0 ffffffff 4 800] ------- [4:255 -1:255 1 0] [0x1 1 [4 2] 4.000000] (HELLO)
r 0.002411609 _7_ RTR  --- 0 AODV 44 [0 ffffffff 4 800] ------- [4:255 -1:255 1 0] [0x1 1 [4 2] 4.000000] (HELLO)
s 0.002411609 _1_ RTR  --- 0 AODV 26 [0 0 0 0] ------- [1:255 4:255 1 4] [0x12 0 [1776105039 1041146866] 0.000000] (HELLO)
s 0.002411609 _7_ RTR  --- 0 AODV 26 [0 0 0 0] ------- [7:255 4:255 1 4] [0x12 0 [1776105039 1041146866] 0.000000] (HELLO)
r 0.003783333 _7_ RTR  --- 0 AODV 26 [13a 7 4 800] ------- [4:255 7:255 1 7] [0x12 0 [1776105039 1041146866] 0.000000] (HELLO)
r 0.005649333 _4_ RTR  --- 0 AODV 26 [13a 4 7 800] ------- [7:255 4:255 1 4] [0x12 0 [1776105039 1041146866] 0.000000] (HELLO)
r 0.006912667 _0_ RTR  --- 0 AODV 44 [0 ffffffff 1 800] ------- [1:255 -1:255 1 0] [0x1 1 [1 2] 4.000000] (HELLO)
r 0.006912667 _4_ RTR  --- 0 AODV 44 [0 ffffffff 1 800] ------- [1:255 -1:255 1 0] [0x1 1 [1 2] 4.000000] (HELLO)
r 0.006912667 _2_ RTR  --- 0 AODV 44 [0 ffffffff 1 800] ------- [1:255 -1:255 1 0] [0x1 1 [1 2] 4.000000] (HELLO)
s 0.006912667 _0_ RTR  --- 0 AODV 26 [0 0 0 0] ------- [0:255 1:255 1 1] [0x12 0 [1776105039 1041146866] 0.000000] (HELLO)
s 0.006912667 _4_ RTR  --- 0 AODV 26 [0 0 0 0] ------- [4:255 1:255 1 1] [0x12 0 [1776105039 1041146866] 0.000000] (HELLO)
s 0.006912667 _2_ RTR  --- 0 AODV 26 [0 0 0 0] ------- [2:255 1:255 1 1] [0x12 0 [1776105039 1041146866] 0.000000] (HELLO)
r 0.006912745 _9_ RTR  --- 0 AODV 44 [0 ffffffff 1 800] ------- [1:255 -1:255 1 0] [0x1 1 [1 2] 4.000000] (HELLO)
s 0.006912745 _9_ RTR  --- 0 AODV 26 [0 0 0 0] ------- [9:255 1:255 1 1] [0x12 0 [1136707225 1040423968] 0.000000] (HELLO)
r 0.007831079 _5_ RTR  --- 0 AODV 44 [0 ffffffff 9 800] ------- [9:255 -1:255 1 0] [0x1 1 [9 2] 4.000000] (HELLO)
r 0.007831079 _2_ RTR  --- 0 AODV 44 [0 ffffffff 9 800] ------- [9:255 -1:255 1 0] [0x1 1 [9 2] 4.000000] (HELLO)
s 0.007831079 _5_ RTR  --- 0 AODV 26 [0 0 0 0] ------- [5:255 9:255 1 9] [0x12 0 [1776105039 1045341170] 0.000000] (HELLO)
s 0.007831079 _2_ RTR  --- 0 AODV 26 [0 0 0 0] ------- [2:255 9:255 1 9] [0x12 0 [1776105039 1045341170] 0.000000] (HELLO)
r 0.007831333 _3_ RTR  --- 0 AODV 44 [0 ffffffff 0 800] ------- [0:255 -1:255 1 0] [0x1 1 [0 2] 4.000000] (HELLO)
s 0.007831333 _3_ RTR  --- 0 AODV 26 [0 0 0 0] ------- [3:255 0:255 1 0] [0x12 0 [1776105039 1041146866] 0.000000] (HELLO)
r 0.009627491 _4_ RTR  --- 0 AODV 26 [13a 4 1 800] ------- [1:255 4:255 1 4] [0x12 0 [1776105039 1041146866] 0.000000] (HELLO)
r 0.011334157 _2_ RTR  --- 0 AODV 26 [13a 2 1 800] ------- [1:255 2:255 1 2] [0x12 0 [1776105039 1041146866] 0.000000] (HELLO)
r 0.012556767 _9_ RTR  --- 0 AODV 44 [0 ffffffff 5 800] ------- [5:255 -1:255 1 0] [0x1 1 [5 2] 4.000000] (HELLO)
s 0.012556767 _9_ RTR  --- 0 AODV 26 [0 0 0 0] ------- [9:255 5:255 1 5] [0x12 0 [1776105039 1045341170] 0.000000] (HELLO)
r 0.012557100 _2_ RTR  --- 0 AODV 44 [0 ffffffff 5 800] ------- [5:255 -1:255 1 0] [0x1 1 [5 2] 4.000000] (HELLO)
r 0.012557100 _4_ RTR  --- 0 AODV 44 [0 ffffffff 5 800] ------- [5:255 -1:255 1 0] [0x1 1 [5 2] 4.000000] (HELLO)
r 0.012557100 _8_ RTR  --- 0 AODV 44 [0 ffffffff 5 800] ------- [5:255 -1:255 1 0] [0x1 1 [5 2] 4.000000] (HELLO)
s 0.012557100 _2_ RTR  --- 0 AODV 26 [0 0 0 0] ------- [2:255 5:255 1 5] [0x12 0 [1776105039 1041146866] 0.000000] (HELLO)
s 0.012557100 _4_ RTR  --- 0 AODV 26 [0 0 0 0] ------- [4:255 5:255 1 5] [0x12 0 [1776105039 1041146866] 0.000000] (HELLO)
s 0.012557100 _8_ RTR  --- 0 AODV 26 [0 0 0 0] ------- [8:255 5:255 1 5] [0x12 0 [1776105039 1041146866] 0.000000] (HELLO)
r 0.013475767 _5_ RTR  --- 0 AODV 44 [0 ffffffff 8 800] ------- [8:255 -1:255 1 0] [0x1 1 [8 2] 4.000000] (HELLO)
r 0.013475767 _7_ RTR  --- 0 AODV 44 [0 ffffffff 8 800] ------- [8:255 -1:255 1 0] [0x1 1 [8 2] 4.000000] (HELLO)
s 0.013475767 _5_ RTR  --- 0 AODV 26 [0 0 0 0] ------- [5:255 8:255 1 8] [0x12 0 [1776105039 1041146866] 0.000000] (HELLO)
s 0.013475767 _7_ RTR  --- 0 AODV 26 [0 0 0 0] ------- [7:255 8:255 1 8] [0x12 0 [1776105039 1041146866] 0.000000] (HELLO)
r 0.015760415 _9_ RTR  --- 0 AODV 26 [13a 9 5 800] ------- [5:255 9:255 1 9] [0x12 0 [1776105039 1045341170] 0.000000] (HELLO)
r 0.017466651 _1_ RTR  --- 0 AODV 26 [13a 1 9 800] ------- [9:255 1:255 1 1] [0x12 0 [1136707225 1040423968] 0.000000] (HELLO)
r 0.019193318 _1_ RTR  --- 0 AODV 26 [13a 1 2 800] ------- [2:255 1:255 1 1] [0x12 0 [1776105039 1041146866] 0.000000] (HELLO)
r 0.020899063 _5_ RTR  --- 0 AODV 26 [13a 5 9 800] ------- [9:255 5:255 1 5] [0x12 0 [1776105039 1045341170] 0.000000] (HELLO)
r 0.022745063 _8_ RTR  --- 0 AODV 26 [13a 8 5 800] ------- [5:255 8:255 1 8] [0x12 0 [1776105039 1041146866] 0.000000] (HELLO)
r 0.024611730 _2_ RTR  --- 0 AODV 26 [13a 2 5 800] ------- [5:255 2:255 1 2] [0x12 0 [1776105039 1041146866] 0.000000] (HELLO)
r 0.026337063 _2_ RTR  --- 0 AODV 26 [13a 2 9 800] ------- [9:255 2:255 1 2] [0x12 0 [1776105039 1045341170] 0.000000] (HELLO)
r 0.028263063 _5_ RTR  --- 0 AODV 26 [13a 5 2 800] ------- [2:255 5:255 1 5] [0x12 0 [1776105039 1041146866] 0.000000] (HELLO)
r 0.030039339 _1_ RTR  --- 0 AODV 26 [13a 1 4 800] ------- [4:255 1:255 1 1] [0x12 0 [1776105039 1041146866] 0.000000] (HELLO)
r 0.031774615 _9_ RTR  --- 0 AODV 26 [13a 9 2 800] ------- [2:255 9:255 1 9] [0x12 0 [1776105039 1045341170] 0.000000] (HELLO)
r 0.033771225 _5_ RTR  --- 0 AODV 26 [13a 5 4 800] ------- [4:255 5:255 1 5] [0x12 0 [1776105039 1041146866] 0.000000] (HELLO)
r 0.035902168 _8_ RTR  --- 0 AODV 26 [13a 8 7 800] ------- [7:255 8:255 1 8] [0x12 0 [1776105039 1041146866] 0.000000] (HELLO)
r 0.038432325 _0_ RTR  --- 0 AODV 44 [0 ffffffff 3 800] ------- [3:255 -1:255 1 0] [0x1 1 [3 2] 4.000000] (HELLO)
r 0.038432325 _6_ RTR  --- 0 AODV 44 [0 ffffffff 3 800] ------- [3:255 -1:255 1 0] [0x1 1 [3 2] 4.000000] (HELLO)
r 0.038432325 _4_ RTR  --- 0 AODV 44 [0 ffffffff 3 800] ------- [3:255 -1:255 1 0] [0x1 1 [3 2] 4.000000] (HELLO)
s 0.038432325 _0_ RTR  --- 0 AODV 26 [0 0 0 0] ------- [0:255 3:255 1 3] [0x12 0 [1776105039 1041146866] 0.000000] (HELLO)
s 0.038432325 _6_ RTR  --- 0 AODV 26 [0 0 0 0] ------- [6:255 3:255 1 3] [0x12 0 [1776105039 1041146866] 0.000000] (HELLO)
s 0.038432325 _4_ RTR  --- 0 AODV 26 [0 0 0 0] ------- [4:255 3:255 1 3] [0x12 0 [1776105039 1041146866] 0.000000] (HELLO)
r 0.039783658 _0_ RTR  --- 0 AODV 26 [13a 0 3 800] ------- [3:255 0:255 1 0] [0x12 0 [1776105039 1041146866] 0.000000] (HELLO)
r 0.043087816 _3_ RTR  --- 0 AODV 26 [13a 3 6 800] ------- [6:255 3:255 1 3] [0x12 0 [1776105039 1041146866] 0.000000] (HELLO)
r 0.044904092 _3_ RTR  --- 0 AODV 26 [13a 3 4 800] ------- [4:255 3:255 1 3] [0x12 0 [1776105039 1041146866] 0.000000] (HELLO)
r 0.047680368 _1_ RTR  --- 0 AODV 26 [13a 1 0 800] ------- [0:255 1:255 1 1] [0x12 0 [1776105039 1041146866] 0.000000] (HELLO)
r 0.049587035 _3_ RTR  --- 0 AODV 26 [13a 3 0 800] ------- [0:255 3:255 1 3] [0x12 0 [1776105039 1041146866] 0.000000] (HELLO)
r 0.052958525 _5_ RTR  --- 0 AODV 26 [13a 5 8 800] ------- [8:255 5:255 1 5] [0x12 0 [1776105039 1041146866] 0.000000] (HELLO)
s 0.750169789 _0_ RTR  --- 0 AODV 44 [0 0 0 0] ------- [0:255 -1:255 1 0] [0x1 1 [0 6] 4.000000] (HELLO)
r 0.751278455 _3_ RTR  --- 0 AODV 44 [0 ffffffff 0 800] ------- [0:255 -1:255 1 0] [0x1 1 [0 6] 4.000000] (HELLO)
r 0.751278455 _1_ RTR  --- 0 AODV 44 [0 ffffffff 0 800] ------- [0:255 -1:255 1 0] [0x1 1 [0 6] 4.000000] (HELLO)
s 0.751278455 _3_ RTR  --- 0 AODV 26 [0 0 0 0] ------- [3:255 0:255 1 0] [0x12 0 [1776105039 1041146866] 0.000000] (HELLO)
s 0.751278455 _1_ RTR  --- 0 AODV 26 [0 0 0 0] ------- [1:255 0:255 1 0] [0x12 0 [1776105039 1041146866] 0.000000] (HELLO)
r 0.752720455 _0_ RTR  --- 0 AODV 26 [13a 0 1 800] ------- [1:255 0:255 1 0] [0x12 0 [1776105039 1041146866] 0.000000] (HELLO)
r 0.754696731 _0_ RTR  --- 0 AODV 26 [13a 0 3 800] ------- [3:255 0:255 1 0] [0x12 0 [1776105039 1041146866] 0.000000] (HELLO)
s 0.757102330 _2_ RTR  --- 0 AODV 44 [0 0 0 0] ------- [2:255 -1:255 1 0] [0x1 1 [2 8] 4.000000] (HELLO)
r 0.758070664 _9_ RTR  --- 0 AODV 44 [0 ffffffff 2 800] ------- [2:255 -1:255 1 0] [0x1 1 [2 8] 4.000000] (HELLO)
s 0.758070664 _9_ RTR  --- 0 AODV 26 [0 0 0 0] ------- [9:255 2:255 1 2] [0x12 0 [1776105039 1045341170] 0.000000] (HELLO)
r 0.758070997 _1_ RTR  --- 0 AODV 44 [0 ffffffff 2 800] ------- [2:255 -1:255 1 0] [0x1 1 [2 8] 4.000000] (HELLO)
r 0.758070997 _5_ RTR  --- 0 AODV 44 [0 ffffffff 2 800] ------- [2:255 -1:255 1 0] [0x1 1 [2 8] 4.000000] (HELLO)
s 0.758070997 _1_ RTR  --- 0 AODV 26 [0 0 0 0] ------- [1:255 2:255 1 2] [0x12 0 [1776105039 1041146866] 0.000000] (HELLO)
s 0.758070997 _5_ RTR  --- 0 AODV 26 [0 0 0 0] ------- [5:255 2:255 1 2] [0x12 0 [1776105039 1041146866] 0.000000] (HELLO)
r 0.759532997 _2_ RTR  --- 0 AODV 26 [13a 2 5 800] ------- [5:255 2:255 1 2] [0x12 0 [1776105039 1041146866] 0.000000] (HELLO)
r 0.761389273 _2_ RTR  --- 0 AODV 26 [13a 2 1 800] ------- [1:255 2:255 1 2] [0x12 0 [1776105039 1041146866] 0.000000] (HELLO)
r 0.763074606 _2_ RTR  --- 0 AODV 26 [13a 2 9 800] ------- [9:255 2:255 1 2] [0x12 0 [1776105039 1045341170] 0.000000] (HELLO)
s 0.794061336 _3_ RTR  --- 0 AODV 44 [0 0 0 0] ------- [3:255 -1:255 1 0] [0x1 1 [3 4] 4.000000] (HELLO)
r 0.795510002 _0_ RTR  --- 0 AODV 44 [0 ffffffff 3 800] ------- [3:255 -1:255 1 0] [0x1 1 [3 4] 4.000000] (HELLO)
r 0.795510002 _6_ RTR  --- 0 AODV 44 [0 ffffffff 3 800] ------- [3:255 -1:255 1 0] [0x1 1 [3 4] 4.000000] (HELLO)
r 0.795510002 _4_ RTR  --- 0 AODV 44 [0 ffffffff 3 800] ------- [3:255 -1:255 1 0] [0x1 1 [3 4] 4.000000] (HELLO)
s 0.795510002 _0_ RTR  --- 0 AODV 26 [0 0 0 0] ------- [0:255 3:255 1 3] [0x12 0 [1776105039 1041146866] 0.000000] (HELLO)
s 0.795510002 _6_ RTR  --- 0 AODV 26 [0 0 0 0] ------- [6:255 3:255 1 3] [0x12 0 [1776105039 1041146866] 0.000000] (HELLO)
s 0.795510002 _4_ RTR  --- 0 AODV 26 [0 0 0 0] ------- [4:255 3:255 1 3] [0x12 0 [1776105039 1041146866] 0.000000] (HELLO)
r 0.797352002 _3_ RTR  --- 0 AODV 26 [13a 3 6 800] ------- [6:255 3:255 1 3] [0x12 0 [1776105039 1041146866] 0.000000] (HELLO)
r 0.799168278 _3_ RTR  --- 0 AODV 26 [13a 3 4 800] ------- [4:255 3:255 1 3] [0x12 0 [1776105039 1041146866] 0.000000] (HELLO)
r 0.800944555 _3_ RTR  --- 0 AODV 26 [13a 3 0 800] ------- [0:255 3:255 1 3] [0x12 0 [1776105039 1041146866] 0.000000] (HELLO)
s 0.867300876 _8_ RTR  --- 0 AODV 44 [0 0 0 0] ------- [8:255 -1:255 1 0] [0x1 1 [8 4] 4.000000] (HELLO)
r 0.868209543 _5_ RTR  --- 0 AODV 44 [0 ffffffff 8 800] ------- [8:255 -1:255 1 0] [0x1 1 [8 4] 4.000000] (HELLO)
r 0.868209543 _7_ RTR  --- 0 AODV 44 [0 ffffffff 8 800] ------- [8:255 -1:255 1 0] [0x1 1 [8 4] 4.000000] (HELLO)
s 0.868209543 _5_ RTR  --- 0 AODV 26 [0 0 0 0] ------- [5:255 8:255 1 8] [0x12 0 [1776105039 1041146866] 0.000000] (HELLO)
s 0.868209543 _7_ RTR  --- 0 AODV 26 [0 0 0 0] ------- [7:255 8:255 1 8] [0x12 0 [1776105039 1041146866] 0.000000] (HELLO)
r 0.869791543 _8_ RTR  --- 0 AODV 26 [13a 8 7 800] ------- [7:255 8:255 1 8] [0x12 0 [1776105039 1041146866] 0.000000] (HELLO)
r 0.871547819 _8_ RTR  --- 0 AODV 26 [13a 8 5 800] ------- [5:255 8:255 1 8] [0x12 0 [1776105039 1041146866] 0.000000] (HELLO)
s 0.906480886 _6_ RTR  --- 0 AODV 44 [0 0 0 0] ------- [6:255 -1:255 1 0] [0x1 1 [6 4] 4.000000] (HELLO)
r 0.907469552 _3_ RTR  --- 0 AODV 44 [0 ffffffff 6 800] ------- [6:255 -1:255 1 0] [0x1 1 [6 4] 4.000000] (HELLO)
r 0.907469552 _7_ RTR  --- 0 AODV 44 [0 ffffffff 6 800] ------- [6:255 -1:255 1 0] [0x1 1 [6 4] 4.000000] (HELLO)
s 0.907469552 _3_ RTR  --- 0 AODV 26 [0 0 0 0] ------- [3:255 6:255 1 6] [0x12 0 [1776105039 1041146866] 0.000000] (HELLO)
s 0.907469552 _7_ RTR  --- 0 AODV 26 [0 0 0 0] ------- [7:255 6:255 1 6] [0x12 0 [1776105039 1041146866] 0.000000] (HELLO)
r 0.908871552 _6_ RTR  --- 0 AODV 26 [13a 6 7 800] ------- [7:255 6:255 1 6] [0x12 0 [1776105039 1041146866] 0.000000] (HELLO)
r 0.910807829 _6_ RTR  --- 0 AODV 26 [13a 6 3 800] ------- [3:255 6:255 1 6] [0x12 0 [1776105039 1041146866] 0.000000] (HELLO)
s 0.970586691 _4_ RTR  --- 0 AODV 44 [0 0 0 0] ------- [4:255 -1:255 1 0] [0x1 1 [4 10] 4.000000] (HELLO)
r 0.971875358 _1_ RTR  --- 0 AODV 44 [0 ffffffff 4 800] ------- [4:255 -1:255 1 0] [0x1 1 [4 10] 4.000000] (HELLO)
r 0.971875358 _3_ RTR  --- 0 AODV 44 [0 ffffffff 4 800] ------- [4:255 -1:255 1 0] [0x1 1 [4 10] 4.000000] (HELLO)
r 0.971875358 _7_ RTR  --- 0 AODV 44 [0 ffffffff 4 800] ------- [4:255 -1:255 1 0] [0x1 1 [4 10] 4.000000] (HELLO)
r 0.971875358 _5_ RTR  --- 0 AODV 44 [0 ffffffff 4 800] ------- [4:255 -1:255 1 0] [0x1 1 [4 10] 4.000000] (HELLO)
s 0.971875358 _1_ RTR  --- 0 AODV 26 [0 0 0 0] ------- [1:255 4:255 1 4] [0x12 0 [1776105039 1041146866] 0.000000] (HELLO)
s 0.971875358 _3_ RTR  --- 0 AODV 26 [0 0 0 0] ------- [3:255 4:255 1 4] [0x12 0 [1776105039 1041146866] 0.000000] (HELLO)
s 0.971875358 _7_ RTR  --- 0 AODV 26 [0 0 0 0] ------- [7:255 4:255 1 4] [0x12 0 [1776105039 1041146866] 0.000000] (HELLO)
s 0.971875358 _5_ RTR  --- 0 AODV 26 [0 0 0 0] ------- [5:255 4:255 1 4] [0x12 0 [1776105039 1041146866] 0.000000] (HELLO)
r 0.971875436 _9_ RTR  --- 0 AODV 44 [0 ffffffff 4 800] ------- [4:255 -1:255 1 0] [0x1 1 [4 10] 4.000000] (HELLO)
s 0.971875436 _9_ RTR  --- 0 AODV 26 [0 0 0 0] ------- [9:255 4:255 1 4] [0x12 0 [1136707225 1040423968] 0.000000] (HELLO)
r 0.973297358 _4_ RTR  --- 0 AODV 26 [13a 4 7 800] ------- [7:255 4:255 1 4] [0x12 0 [1776105039 1041146866] 0.000000] (HELLO)
r 0.975094129 _4_ RTR  --- 0 AODV 26 [13a 4 9 800] ------- [9:255 4:255 1 4] [0x12 0 [1136707225 1040423968] 0.000000] (HELLO)
r 0.976870758 _4_ RTR  --- 0 AODV 26 [13a 4 3 800] ------- [3:255 4:255 1 4] [0x12 0 [1776105039 1041146866] 0.000000] (HELLO)
r 0.978647425 _4_ RTR  --- 0 AODV 26 [13a 4 5 800] ------- [5:255 4:255 1 4] [0x12 0 [1776105039 1041146866] 0.000000] (HELLO)
r 0.980423701 _4_ RTR  --- 0 AODV 26 [13a 4 1 800] ------- [1:255 4:255 1 4] [0x12 0 [1776105039 1041146866] 0.000000] (HELLO)
s 1.027940358 _1_ RTR  --- 0 AODV 44 [0 0 0 0] ------- [1:255 -1:255 1 0] [0x1 1 [1 8] 4.000000] (HELLO)
r 1.028829025 _0_ RTR  --- 0 AODV 44 [0 ffffffff 1 800] ------- [1:255 -1:255 1 0] [0x1 1 [1 8] 4.000000] (HELLO)
r 1.028829025 _4_ RTR  --- 0 AODV 44 [0 ffffffff 1 800] ------- [1:255 -1:255 1 0] [0x1 1 [1 8] 4.000000] (HELLO)
r 1.028829025 _2_ RTR  --- 0 AODV 44 [0 ffffffff 1 800] ------- [1:255 -1:255 1 0] [0x1 1 [1 8] 4.000000] (HELLO)
s 1.028829025 _0_ RTR  --- 0 AODV 26 [0 0 0 0] ------- [0:255 1:255 1 1] [0x12 0 [1776105039 1041146866] 0.000000] (HELLO)
s 1.028829025 _4_ RTR  --- 0 AODV 26 [0 0 0 0] ------- [4:255 1:255 1 1] [0x12 0 [1776105039 1041146866] 0.000000] (HELLO)
s 1.028829025 _2_ RTR  --- 0 AODV 26 [0 0 0 0] ------- [2:255 1:255 1 1] [0x12 0 [1776105039 1041146866] 0.000000] (HELLO)
r 1.028829103 _9_ RTR  --- 0 AODV 44 [0 ffffffff 1 800] ------- [1:255 -1:255 1 0] [0x1 1 [1 8] 4.000000] (HELLO)
s 1.028829103 _9_ RTR  --- 0 AODV 26 [0 0 0 0] ------- [9:255 1:255 1 1] [0x12 0 [1136707225 1040423968] 0.000000] (HELLO)
r 1.031258358 _1_ RTR  --- 0 AODV 26 [13a 1 0 800] ------- [0:255 1:255 1 1] [0x12 0 [1776105039 1041146866] 0.000000] (HELLO)
r 1.033335302 _1_ RTR  --- 0 AODV 26 [13a 1 9 800] ------- [9:255 1:255 1 1] [0x12 0 [1136707225 1040423968] 0.000000] (HELLO)
r 1.035361968 _1_ RTR  --- 0 AODV 26 [13a 1 2 800] ------- [2:255 1:255 1 1] [0x12 0 [1776105039 1041146866] 0.000000] (HELLO)
r 1.037278245 _1_ RTR  --- 0 AODV 26 [13a 1 4 800] ------- [4:255 1:255 1 1] [0x12 0 [1776105039 1041146866] 0.000000] (HELLO)
s 1.069432572 _9_ RTR  --- 0 AODV 44 [0 0 0 0] ------- [9:255 -1:255 1 0] [0x1 1 [9 10] 4.000000] (HELLO)
r 1.070440905 _5_ RTR  --- 0 AODV 44 [0 ffffffff 9 800] ------- [9:255 -1:255 1 0] [0x1 1 [9 10] 4.000000] (HELLO)
r 1.070440905 _2_ RTR  --- 0 AODV 44 [0 ffffffff 9 800] ------- [9:255 -1:255 1 0] [0x1 1 [9 10] 4.000000] (HELLO)
s 1.070440905 _5_ RTR  --- 0 AODV 26 [0 0 0 0] ------- [5:255 9:255 1 9] [0x12 0 [1776105039 1045341170] 0.000000] (HELLO)
s 1.070440905 _2_ RTR  --- 0 AODV 26 [0 0 0 0] ------- [2:255 9:255 1 9] [0x12 0 [1776105039 1045341170] 0.000000] (HELLO)
r 1.070441317 _4_ RTR  --- 0 AODV 44 [0 ffffffff 9 800] ------- [9:255 -1:255 1 0] [0x1 1 [9 10] 4.000000] (HELLO)
r 1.070441317 _1_ RTR  --- 0 AODV 44 [0 ffffffff 9 800] ------- [9:255 -1:255 1 0] [0x1 1 [9 10] 4.000000] (HELLO)
s 1.070441317 _4_ RTR  --- 0 AODV 26 [0 0 0 0] ------- [4:255 9:255 1 9] [0x12 0 [1136707225 1040423968] 0.000000] (HELLO)
s 1.070441317 _1_ RTR  --- 0 AODV 26 [0 0 0 0] ------- [1:255 9:255 1 9] [0x12 0 [1136707225 1040423968] 0.000000] (HELLO)
r 1.072709260 _9_ RTR  --- 0 AODV 26 [13a 9 2 800] ------- [2:255 9:255 1 9] [0x12 0 [1776105039 1045341170] 0.000000] (HELLO)
r 1.074694593 _9_ RTR  --- 0 AODV 26 [13a 9 5 800] ------- [5:255 9:255 1 9] [0x12 0 [1776105039 1045341170] 0.000000] (HELLO)
r 1.076531439 _9_ RTR  --- 0 AODV 26 [13a 9 1 800] ------- [1:255 9:255 1 9] [0x12 0 [1136707225 1040423968] 0.000000] (HELLO)
r 1.078258420 _9_ RTR  --- 0 AODV 26 [13a 9 4 800] ------- [4:255 9:255 1 9] [0x12 0 [1136707225 1040423968] 0.000000] (HELLO)
s 1.149577727 _5_ RTR  --- 0 AODV 44 [0 0 0 0] ------- [5:255 -1:255 1 0] [0x1 1 [5 10] 4.000000] (HELLO)
r 1.150966060 _9_ RTR  --- 0 AODV 44 [0 ffffffff 5 800] ------- [5:255 -1:255 1 0] [0x1 1 [5 10] 4.000000] (HELLO)
s 1.150966060 _9_ RTR  --- 0 AODV 26 [0 0 0 0] ------- [9:255 5:255 1 5] [0x12 0 [1776105039 1045341170] 0.000000] (HELLO)
r 1.150966393 _2_ RTR  --- 0 AODV 44 [0 ffffffff 5 800] ------- [5:255 -1:255 1 0] [0x1 1 [5 10] 4.000000] (HELLO)
r 1.150966393 _4_ RTR  --- 0 AODV 44 [0 ffffffff 5 800] ------- [5:255 -1:255 1 0] [0x1 1 [5 10] 4.000000] (HELLO)
r 1.150966393 _8_ RTR  --- 0 AODV 44 [0 ffffffff 5 800] ------- [5:255 -1:255 1 0] [0x1 1 [5 10] 4.000000] (HELLO)
s 1.150966393 _2_ RTR  --- 0 AODV 26 [0 0 0 0] ------- [2:255 5:255 1 5] [0x12 0 [1776105039 1041146866] 0.000000] (HELLO)
s 1.150966393 _4_ RTR  --- 0 AODV 26 [0 0 0 0] ------- [4:255 5:255 1 5] [0x12 0 [1776105039 1041146866] 0.000000] (HELLO)
s 1.150966393 _8_ RTR  --- 0 AODV 26 [0 0 0 0] ------- [8:255 5:255 1 5] [0x12 0 [1776105039 1041146866] 0.000000] (HELLO)
r 1.152368393 _5_ RTR  --- 0 AODV 26 [13a 5 2 800] ------- [2:255 5:255 1 5] [0x12 0 [1776105039 1041146866] 0.000000] (HELLO)
r 1.154213727 _5_ RTR  --- 0 AODV 26 [13a 5 9 800] ------- [9:255 5:255 1 5] [0x12 0 [1776105039 1045341170] 0.000000] (HELLO)
r 1.156140393 _5_ RTR  --- 0 AODV 26 [13a 5 4 800] ------- [4:255 5:255 1 5] [0x12 0 [1776105039 1041146866] 0.000000] (HELLO)
r 1.158036670 _5_ RTR  --- 0 AODV 26 [13a 5 8 800] ------- [8:255 5:255 1 5] [0x12 0 [1776105039 1041146866] 0.000000] (HELLO)
s 1.158238026 _7_ RTR  --- 0 AODV 44 [0 0 0 0] ------- [7:255 -1:255 1 0] [0x1 1 [7 8] 4.000000] (HELLO)
r 1.159694279 _4_ RTR  --- 0 AODV 44 [0 ffffffff 7 800] ------- [7:255 -1:255 1 0] [0x1 1 [7 8] 4.000000] (HELLO)
r 1.159694279 _6_ RTR  --- 0 AODV 44 [0 ffffffff 7 800] ------- [7:255 -1:255 1 0] [0x1 1 [7 8] 4.000000] (HELLO)
r 1.159694279 _8_ RTR  --- 0 AODV 44 [0 ffffffff 7 800] ------- [7:255 -1:255 1 0] [0x1 1 [7 8] 4.000000] (HELLO)
s 1.159694279 _4_ RTR  --- 0 AODV 26 [0 0 0 0] ------- [4:255 7:255 1 7] [0x12 0 [1776105039 1041146866] 0.000000] (HELLO)
s 1.159694279 _6_ RTR  --- 0 AODV 26 [0 0 0 0] ------- [6:255 7:255 1 7] [0x12 0 [1776105039 1041146866] 0.000000] (HELLO)
s 1.159694279 _8_ RTR  --- 0 AODV 26 [0 0 0 0] ------- [8:255 7:255 1 7] [0x12 0 [1776105039 1041146866] 0.000000] (HELLO)
r 1.161236279 _7_ RTR  --- 0 AODV 26 [13a 7 4 800] ------- [4:255 7:255 1 7] [0x12 0 [1776105039 1041146866] 0.000000] (HELLO)
r 1.165139889 _7_ RTR  --- 0 AODV 26 [13a 7 6 800] ------- [6:255 7:255 1 7] [0x12 0 [1776105039 1041146866] 0.000000] (HELLO)
r 1.167036555 _7_ RTR  --- 0 AODV 26 [13a 7 8 800] ------- [8:255 7:255 1 7] [0x12 0 [1776105039 1041146866] 0.000000] (HELLO)
s 1.672877063 _6_ RTR  --- 0 AODV 44 [0 0 0 0] ------- [6:255 -1:255 1 0] [0x1 1 [6 6] 4.000000] (HELLO)
r 1.674045730 _3_ RTR  --- 0 AODV 44 [0 ffffffff 6 800] ------- [6:255 -1:255 1 0] [0x1 1 [6 6] 4.000000] (HELLO)
r 1.674045730 _7_ RTR  --- 0 AODV 44 [0 ffffffff 6 800] ------- [6:255 -1:255 1 0] [0x1 1 [6 6] 4.000000] (HELLO)
s 1.674045730 _3_ RTR  --- 0 AODV 26 [0 0 0 0] ------- [3:255 6:255 1 6] [0x12 0 [1776105039 1041146866] 0.000000] (HELLO)
s 1.674045730 _7_ RTR  --- 0 AODV 26 [0 0 0 0] ------- [7:255 6:255 1 6] [0x12 0 [1776105039 1041146866] 0.000000] (HELLO)
r 1.675767730 _6_ RTR  --- 0 AODV 26 [13a 6 3 800] ------- [3:255 6:255 1 6] [0x12 0 [1776105039 1041146866] 0.000000] (HELLO)
r 1.677644006 _6_ RTR  --- 0 AODV 26 [13a 6 7 800] ------- [7:255 6:255 1 6] [0x12 0 [1776105039 1041146866] 0.000000] (HELLO)
s 1.773551606 _2_ RTR  --- 0 AODV 44 [0 0 0 0] ------- [2:255 -1:255 1 0] [0x1 1 [2 8] 4.000000] (HELLO)
r 1.774499940 _9_ RTR  --- 0 AODV 44 [0 ffffffff 2 800] ------- [2:255 -1:255 1 0] [0x1 1 [2 8] 4.000000] (HELLO)
s 1.774499940 _9_ RTR  --- 0 AODV 26 [0 0 0 0] ------- [9:255 2:255 1 2] [0x12 0 [1776105039 1045341170] 0.000000] (HELLO)
r 1.774500273 _1_ RTR  --- 0 AODV 44 [0 ffffffff 2 800] ------- [2:255 -1:255 1 0] [0x1 1 [2 8] 4.000000] (HELLO)
r 1.774500273 _5_ RTR  --- 0 AODV 44 [0 ffffffff 2 800] ------- [2:255 -1:255 1 0] [0x1 1 [2 8] 4.000000] (HELLO)
s 1.774500273 _1_ RTR  --- 0 AODV 26 [0 0 0 0] ------- [1:255 2:255 1 2] [0x12 0 [1776105039 1041146866] 0.000000] (HELLO)
s 1.774500273 _5_ RTR  --- 0 AODV 26 [0 0 0 0] ------- [5:255 2:255 1 2] [0x12 0 [1776105039 1041146866] 0.000000] (HELLO)
r 1.775900940 _2_ RTR  --- 0 AODV 26 [13a 2 9 800] ------- [9:255 2:255 1 2] [0x12 0 [1776105039 1045341170] 0.000000] (HELLO)
r 1.777887606 _2_ RTR  --- 0 AODV 26 [13a 2 5 800] ------- [5:255 2:255 1 2] [0x12 0 [1776105039 1041146866] 0.000000] (HELLO)
r 1.779843882 _2_ RTR  --- 0 AODV 26 [13a 2 1 800] ------- [1:255 2:255 1 2] [0x12 0 [1776105039 1041146866] 0.000000] (HELLO)
s 1.837528918 _1_ RTR  --- 0 AODV 44 [0 0 0 0] ------- [1:255 -1:255 1 0] [0x1 1 [1 10] 4.000000] (HELLO)
r 1.838517585 _0_ RTR  --- 0 AODV 44 [0 ffffffff 1 800] ------- [1:255 -1:255 1 0] [0x1 1 [1 10] 4.000000] (HELLO)
r 1.838517585 _4_ RTR  --- 0 AODV 44 [0 ffffffff 1 800] ------- [1:255 -1:255 1 0] [0x1 1 [1 10] 4.000000] (HELLO)
r 1.838517585 _2_ RTR  --- 0 AODV 44 [0 ffffffff 1 800] ------- [1:255 -1:255 1 0] [0x1 1 [1 10] 4.000000] (HELLO)
s 1.838517585 _0_ RTR  --- 0 AODV 26 [0 0 0 0] ------- [0:255 1:255 1 1] [0x12 0 [1776105039 1041146866] 0.000000] (HELLO)
s 1.838517585 _4_ RTR  --- 0 AODV 26 [0 0 0 0] ------- [4:255 1:255 1 1] [0x12 0 [1776105039 1041146866] 0.000000] (HELLO)
s 1.838517585 _2_ RTR  --- 0 AODV 26 [0 0 0 0] ------- [2:255 1:255 1 1] [0x12 0 [1776105039 1041146866] 0.000000] (HELLO)
r 1.838517664 _9_ RTR  --- 0 AODV 44 [0 ffffffff 1 800] ------- [1:255 -1:255 1 0] [0x1 1 [1 10] 4.000000] (HELLO)
s 1.838517664 _9_ RTR  --- 0 AODV 26 [0 0 0 0] ------- [9:255 1:255 1 1] [0x12 0 [1136707225 1040423968] 0.000000] (HELLO)
r 1.839919585 _1_ RTR  --- 0 AODV 26 [13a 1 4 800] ------- [4:255 1:255 1 1] [0x12 0 [1776105039 1041146866] 0.000000] (HELLO)
r 1.841655861 _1_ RTR  --- 0 AODV 26 [13a 1 0 800] ------- [0:255 1:255 1 1] [0x12 0 [1776105039 1041146866] 0.000000] (HELLO)
r 1.843432528 _1_ RTR  --- 0 AODV 26 [13a 1 2 800] ------- [2:255 1:255 1 1] [0x12 0 [1776105039 1041146866] 0.000000] (HELLO)
r 1.845539509 _1_ RTR  --- 0 AODV 26 [13a 1 9 800] ------- [9:255 1:255 1 1] [0x12 0 [1136707225 1040423968] 0.000000] (HELLO)
s 1.847638419 _0_ RTR  --- 0 AODV 44 [0 0 0 0] ------- [0:255 -1:255 1 0] [0x1 1 [0 6] 4.000000] (HELLO)
r 1.848727086 _3_ RTR  --- 0 AODV 44 [0 ffffffff 0 800] ------- [0:255 -1:255 1 0] [0x1 1 [0 6] 4.000000] (HELLO)
r 1.848727086 _1_ RTR  --- 0 AODV 44 [0 ffffffff 0 800] ------- [0:255 -1:255 1 0] [0x1 1 [0 6] 4.000000] (HELLO)
s 1.848727086 _3_ RTR  --- 0 AODV 26 [0 0 0 0] ------- [3:255 0:255 1 0] [0x12 0 [1776105039 1041146866] 0.000000] (HELLO)
s 1.848727086 _1_ RTR  --- 0 AODV 26 [0 0 0 0] ------- [1:255 0:255 1 0] [0x12 0 [1776105039 1041146866] 0.000000] (HELLO)
r 1.850169086 _0_ RTR  --- 0 AODV 26 [13a 0 3 800] ------- [3:255 0:255 1 0] [0x12 0 [1776105039 1041146866] 0.000000] (HELLO)
s 1.851677085 _9_ RTR  --- 0 AODV 44 [0 0 0 0] ------- [9:255 -1:255 1 0] [0x1 1 [9 10] 4.000000] (HELLO)
r 1.851945362 _0_ RTR  --- 0 AODV 26 [13a 0 1 800] ------- [1:255 0:255 1 0] [0x12 0 [1776105039 1041146866] 0.000000] (HELLO)
r 1.853963070 _5_ RTR  --- 0 AODV 44 [0 ffffffff 9 800] ------- [9:255 -1:255 1 0] [0x1 1 [9 10] 4.000000] (HELLO)
r 1.853963070 _2_ RTR  --- 0 AODV 44 [0 ffffffff 9 800] ------- [9:255 -1:255 1 0] [0x1 1 [9 10] 4.000000] (HELLO)
s 1.853963070 _5_ RTR  --- 0 AODV 26 [0 0 0 0] ------- [5:255 9:255 1 9] [0x12 0 [1776105039 1045341170] 0.000000] (HELLO)
s 1.853963070 _2_ RTR  --- 0 AODV 26 [0 0 0 0] ------- [2:255 9:255 1 9] [0x12 0 [1776105039 1045341170] 0.000000] (HELLO)
r 1.853963482 _4_ RTR  --- 0 AODV 44 [0 ffffffff 9 800] ------- [9:255 -1:255 1 0] [0x1 1 [9 10] 4.000000] (HELLO)
r 1.853963482 _1_ RTR  --- 0 AODV 44 [0 ffffffff 9 800] ------- [9:255 -1:255 1 0] [0x1 1 [9 10] 4.000000] (HELLO)
s 1.853963482 _4_ RTR  --- 0 AODV 26 [0 0 0 0] ------- [4:255 9:255 1 9] [0x12 0 [1136707225 1040423968] 0.000000] (HELLO)
s 1.853963482 _1_ RTR  --- 0 AODV 26 [0 0 0 0] ------- [1:255 9:255 1 9] [0x12 0 [1136707225 1040423968] 0.000000] (HELLO)
r 1.855404070 _9_ RTR  --- 0 AODV 26 [13a 9 5 800] ------- [5:255 9:255 1 9] [0x12 0 [1776105039 1045341170] 0.000000] (HELLO)
r 1.857289403 _9_ RTR  --- 0 AODV 26 [13a 9 2 800] ------- [2:255 9:255 1 9] [0x12 0 [1776105039 1045341170] 0.000000] (HELLO)
r 1.859106249 _9_ RTR  --- 0 AODV 26 [13a 9 4 800] ------- [4:255 9:255 1 9] [0x12 0 [1136707225 1040423968] 0.000000] (HELLO)
r 1.860793230 _9_ RTR  --- 0 AODV 26 [13a 9 1 800] ------- [1:255 9:255 1 9] [0x12 0 [1136707225 1040423968] 0.000000] (HELLO)
s 1.890362385 _8_ RTR  --- 0 AODV 44 [0 0 0 0] ------- [8:255 -1:255 1 0] [0x1 1 [8 6] 4.000000] (HELLO)
r 1.891711051 _5_ RTR  --- 0 AODV 44 [0 ffffffff 8 800] ------- [8:255 -1:255 1 0] [0x1 1 [8 6] 4.000000] (HELLO)
r 1.891711051 _7_ RTR  --- 0 AODV 44 [0 ffffffff 8 800] ------- [8:255 -1:255 1 0] [0x1 1 [8 6] 4.000000] (HELLO)
s 1.891711051 _5_ RTR  --- 0 AODV 26 [0 0 0 0] ------- [5:255 8:255 1 8] [0x12 0 [1776105039 1041146866] 0.000000] (HELLO)
s 1.891711051 _7_ RTR  --- 0 AODV 26 [0 0 0 0] ------- [7:255 8:255 1 8] [0x12 0 [1776105039 1041146866] 0.000000] (HELLO)
r 1.893113051 _8_ RTR  --- 0 AODV 26 [13a 8 7 800] ------- [7:255 8:255 1 8] [0x12 0 [1776105039 1041146866] 0.000000] (HELLO)
r 1.895089328 _8_ RTR  --- 0 AODV 26 [13a 8 5 800] ------- [5:255 8:255 1 8] [0x12 0 [1776105039 1041146866] 0.000000] (HELLO)
s 1.911981600 _3_ RTR  --- 0 AODV 44 [0 0 0 0] ------- [3:255 -1:255 1 0] [0x1 1 [3 8] 4.000000] (HELLO)
r 1.913250267 _0_ RTR  --- 0 AODV 44 [0 ffffffff 3 800] ------- [3:255 -1:255 1 0] [0x1 1 [3 8] 4.000000] (HELLO)
r 1.913250267 _6_ RTR  --- 0 AODV 44 [0 ffffffff 3 800] ------- [3:255 -1:255 1 0] [0x1 1 [3 8] 4.000000] (HELLO)
r 1.913250267 _4_ RTR  --- 0 AODV 44 [0 ffffffff 3 800] ------- [3:255 -1:255 1 0] [0x1 1 [3 8] 4.000000] (HELLO)
s 1.913250267 _0_ RTR  --- 0 AODV 26 [0 0 0 0] ------- [0:255 3:255 1 3] [0x12 0 [1776105039 1041146866] 0.000000] (HELLO)
s 1.913250267 _6_ RTR  --- 0 AODV 26 [0 0 0 0] ------- [6:255 3:255 1 3] [0x12 0 [1776105039 1041146866] 0.000000] (HELLO)
s 1.913250267 _4_ RTR  --- 0 AODV 26 [0 0 0 0] ------- [4:255 3:255 1 3] [0x12 0 [1776105039 1041146866] 0.000000] (HELLO)
r 1.914672267 _3_ RTR  --- 0 AODV 26 [13a 3 0 800] ------- [0:255 3:255 1 3] [0x12 0 [1776105039 1041146866] 0.000000] (HELLO)
r 1.916748543 _3_ RTR  --- 0 AODV 26 [13a 3 4 800] ------- [4:255 3:255 1 3] [0x12 0 [1776105039 1041146866] 0.000000] (HELLO)
r 1.918604819 _3_ RTR  --- 0 AODV 26 [13a 3 6 800] ------- [6:255 3:255 1 3] [0x12 0 [1776105039 1041146866] 0.000000] (HELLO)
s 2.014066163 _5_ RTR  --- 0 AODV 44 [0 0 0 0] ------- [5:255 -1:255 1 0] [0x1 1 [5 10] 4.000000] (HELLO)