n -t * -s 0  -x 100 -y 100 -Z 0 -z 30  -v circle -c black
n -t * -s 1  -x 300 -y 100 -Z 0 -z 30  -v circle -c black
n -t * -s 2  -x 500 -y 100 -Z 0 -z 30  -v circle -c black
n -t * -s 3  -x 100 -y 300 -Z 0 -z 30  -v circle -c black
n -t * -s 4  -x 300 -y 300 -Z 0 -z 30  -v circle -c black
n -t * -s 5  -x 500 -y 300 -Z 0 -z 30  -v circle -c black
n -t * -s 6  -x 100 -y 500 -Z 0 -z 30  -v circle -c black
n -t * -s 7  -x 300 -y 500 -Z 0 -z 30  -v circle -c black
n -t * -s 8  -x 500 -y 500 -Z 0 -z 30  -v circle -c black
n -t * -s 9  -x 500 -y 200 -Z 0 -z 30  -v circle -c black
V -t * -v 1.0a5 -a 0
W -t * -x 500 -y 500
A -t * -n 1 -p 0 -o 0xffffffff -c 31 -a 1
A -t * -h 1 -m 2147483647 -s 0
+ -t 0.000000000 -s 0 -d -1 -p AODV -e 44 -c 2 -a 0 -i 0 -k RTR 
- -t 0.000000000 -s 0 -d -1 -p AODV -e 44 -c 2 -a 0 -i 0 -k RTR
h -t 0.000000000 -s 0 -d -1 -p AODV -e 44 -c 2 -a 0 -i 0 -k RTR
+ -t 0.000000000 -s 1 -d -1 -p AODV -e 44 -c 2 -a 0 -i 0 -k RTR 
- -t 0.000000000 -s 1 -d -1 -p AODV -e 44 -c 2 -a 0 -i 0 -k RTR
h -t 0.000000000 -s 1 -d -1 -p AODV -e 44 -c 2 -a 0 -i 0 -k RTR
+ -t 0.000000000 -s 2 -d -1 -p AODV -e 44 -c 2 -a 0 -i 0 -k RTR 
- -t 0.000000000 -s 2 -d -1 -p AODV -e 44 -c 2 -a 0 -i 0 -k RTR
h -t 0.000000000 -s 2 -d -1 -p AODV -e 44 -c 2 -a 0 -i 0 -k RTR
+ -t 0.000000000 -s 3 -d -1 -p AODV -e 44 -c 2 -a 0 -i 0 -k RTR 
- -t 0.000000000 -s 3 -d -1 -p AODV -e 44 -c 2 -a 0 -i 0 -k RTR
h -t 0.000000000 -s 3 -d -1 -p AODV -e 44 -c 2 -a 0 -i 0 -k RTR
+ -t 0.000000000 -s 4 -d -1 -p AODV -e 44 -c 2 -a 0 -i 0 -k RTR 
- -t 0.000000000 -s 4 -d -1 -p AODV -e 44 -c 2 -a 0 -i 0 -k RTR
h -t 0.000000000 -s 4 -d -1 -p AODV -e 44 -c 2 -a 0 -i 0 -k RTR
+ -t 0.000000000 -s 5 -d -1 -p AODV -e 44 -c 2 -a 0 -i 0 -k RTR 
- -t 0.000000000 -s 5 -d -1 -p AODV -e 44 -c 2 -a 0 -i 0 -k RTR
h -t 0.000000000 -s 5 -d -1 -p AODV -e 44 -c 2 -a 0 -i 0 -k RTR
+ -t 0.000000000 -s 6 -d -1 -p AODV -e 44 -c 2 -a 0 -i 0 -k RTR 
- -t 0.000000000 -s 6 -d -1 -p AODV -e 44 -c 2 -a 0 -i 0 -k RTR
h -t 0.000000000 -s 6 -d -1 -p AODV -e 44 -c 2 -a 0 -i 0 -k RTR
+ -t 0.000000000 -s 7 -d -1 -p AODV -e 44 -c 2 -a 0 -i 0 -k RTR 
- -t 0.000000000 -s 7 -d -1 -p AODV -e 44 -c 2 -a 0 -i 0 -k RTR
h -t 0.000000000 -s 7 -d -1 -p AODV -e 44 -c 2 -a 0 -i 0 -k RTR
+ -t 0.000000000 -s 8 -d -1 -p AODV -e 44 -c 2 -a 0 -i 0 -k RTR 
- -t 0.000000000 -s 8 -d -1 -p AODV -e 44 -c 2 -a 0 -i 0 -k RTR
h -t 0.000000000 -s 8 -d -1 -p AODV -e 44 -c 2 -a 0 -i 0 -k RTR
+ -t 0.000000000 -s 9 -d -1 -p AODV -e 44 -c 2 -a 0 -i 0 -k RTR 
- -t 0.000000000 -s 9 -d -1 -p AODV -e 44 -c 2 -a 0 -i 0 -k RTR
h -t 0.000000000 -s 9 -d -1 -p AODV -e 44 -c 2 -a 0 -i 0 -k RTR
r -t 0.000908333 -s 9 -d -1 -p AODV -e 44 -c 2 -a 0 -i 0 -k RTR
+ -t 0.000908333 -s 9 -d 2 -p AODV -e 26 -c 2 -a 0 -i 0 -k RTR 
- -t 0.000908333 -s 9 -d 2 -p AODV -e 26 -c 2 -a 0 -i 0 -k RTR
h -t 0.000908333 -s 9 -d 2 -p AODV -e 26 -c 2 -a 0 -i 0 -k RTR
r -t 0.000908667 -s 1 -d -1 -p AODV -e 44 -c 2 -a 0 -i 0 -k RTR
r -t 0.000908667 -s 5 -d -1 -p AODV -e 44 -c 2 -a 0 -i 0 -k RTR
+ -t 0.000908667 -s 1 -d 2 -p AODV -e 26 -c 2 -a 0 -i 0 -k RTR 
- -t 0.000908667 -s 1 -d 2 -p AODV -e 26 -c 2 -a 0 -i 0 -k RTR
h -t 0.000908667 -s 1 -d 2 -p AODV -e 26 -c 2 -a 0 -i 0 -k RTR
+ -t 0.000908667 -s 5 -d 2 -p AODV -e 26 -c 2 -a 0 -i 0 -k RTR 
- -t 0.000908667 -s 5 -d 2 -p AODV -e 26 -c 2 -a 0 -i 0 -k RTR
h -t 0.000908667 -s 5 -d 2 -p AODV -e 26 -c 2 -a 0 -i 0 -k RTR
r -t 0.002411333 -s 4 -d -1 -p AODV -e 44 -c 2 -a 0 -i 0 -k RTR
+ -t 0.002411333 -s 4 -d 7 -p AODV -e 26 -c 2 -a 0 -i 0 -k RTR 
- -t 0.002411333 -s 4 -d 7 -p AODV -e 26 -c 2 -a 0 -i 0 -k RTR
h -t 0.002411333 -s 4 -d 7 -p AODV -e 26 -c 2 -a 0 -i 0 -k RTR
r -t 0.002411609 -s 1 -d -1 -p AODV -e 44 -c 2 -a 0 -i 0 -k RTR
r -t 0.002411609 -s 7 -d -1 -p AODV -e 44 -c 2 -a 0 -i 0 -k RTR
+ -t 0.002411609 -s 1 -d 4 -p AODV -e 26 -c 2 -a 0 -i 0 -k RTR 
- -t 0.002411609 -s 1 -d 4 -p AODV -e 26 -c 2 -a 0 -i 0 -k RTR
h -t 0.002411609 -s 1 -d 4 -p AODV -e 26 -c 2 -a 0 -i 0 -k RTR
+ -t 0.002411609 -s 7 -d 4 -p AODV -e 26 -c 2 -a 0 -i 0 -k RTR 
- -t 0.002411609 -s 7 -d 4 -p AODV -e 26 -c 2 -a 0 -i 0 -k RTR
h -t 0.002411609 -s 7 -d 4 -p AODV -e 26 -c 2 -a 0 -i 0 -k RTR
r -t 0.006912667 -s 0 -d -1 -p AODV -e 44 -c 2 -a 0 -i 0 -k RTR
r -t 0.006912667 -s 4 -d -1 -p AODV -e 44 -c 2 -a 0 -i 0 -k RTR
r -t 0.006912667 -s 2 -d -1 -p AODV -e 44 -c 2 -a 0 -i 0 -k RTR
+ -t 0.006912667 -s 0 -d 1 -p AODV -e 26 -c 2 -a 0 -i 0 -k RTR 
- -t 0.006912667 -s 0 -d 1 -p AODV -e 26 -c 2 -a 0 -i 0 -k RTR
h -t 0.006912667 -s 0 -d 1 -p AODV -e 26 -c 2 -a 0 -i 0 -k RTR
+ -t 0.006912667 -s 4 -d 1 -p AODV -e 26 -c 2 -a 0 -i 0 -k RTR 
- -t 0.006912667 -s 4 -d 1 -p AODV -e 26 -c 2 -a 0 -i 0 -k RTR
h -t 0.006912667 -s 4 -d 1 -p AODV -e 26 -c 2 -a 0 -i 0 -k RTR
+ -t 0.006912667 -s 2 -d 1 -p AODV -e 26 -c 2 -a 0 -i 0 -k RTR 
- -t 0.006912667 -s 2 -d 1 -p AODV -e 26 -c 2 -a 0 -i 0 -k RTR
h -t 0.006912667 -s 2 -d 1 -p AODV -e 26 -c 2 -a 0 -i 0 -k RTR
r -t 0.006912745 -s 9 -d -1 -p AODV -e 44 -c 2 -a 0 -i 0 -k RTR
+ -t 0.006912745 -s 9 -d 1 -p AODV -e 26 -c 2 -a 0 -i 0 -k RTR 
- -t 0.006912745 -s 9 -d 1 -p AODV -e 26 -c 2 -a 0 -i 0 -k RTR
h -t 0.006912745 -s 9 -d 1 -p AODV -e 26 -c 2 -a 0 -i 0 -k RTR
r -t 0.007831079 -s 5 -d -1 -p AODV -e 44 -c 2 -a 0 -i 0 -k RTR
r -t 0.007831079 -s 2 -d -1 -p AODV -e 44 -c 2 -a 0 -i 0 -k RTR
+ -t 0.007831079 -s 5 -d 9 -p AODV -e 26 -c 2 -a 0 -i 0 -k RTR 
- -t 0.007831079 -s 5 -d 9 -p AODV -e 26 -c 2 -a 0 -i 0 -k RTR
h -t 0.007831079 -s 5 -d 9 -p AODV -e 26 -c 2 -a 0 -i 0 -k RTR
+ -t 0.007831079 -s 2 -d 9 -p AODV -e 26 -c 2 -a 0 -i 0 -k RTR 
- -t 0.007831079 -s 2 -d 9 -p AODV -e 26 -c 2 -a 0 -i 0 -k RTR
h -t 0.007831079 -s 2 -d 9 -p AODV -e 26 -c 2 -a 0 -i 0 -k RTR
r -t 0.007831333 -s 3 -d -1 -p AODV -e 44 -c 2 -a 0 -i 0 -k RTR
+ -t 0.007831333 -s 3 -d 0 -p AODV -e 26 -c 2 -a 0 -i 0 -k RTR 
- -t 0.007831333 -s 3 -d 0 -p AODV -e 26 -c 2 -a 0 -i 0 -k RTR
h -t 0.007831333 -s 3 -d 0 -p AODV -e 26 -c 2 -a 0 -i 0 -k RTR
r -t 0.012556767 -s 9 -d -1 -p AODV -e 44 -c 2 -a 0 -i 0 -k RTR
+ -t 0.012556767 -s 9 -d 5 -p AODV -e 26 -c 2 -a 0 -i 0 -k RTR 
- -t 0.012556767 -s 9 -d 5 -p AODV -e 26 -c 2 -a 0 -i 0 -k RTR
h -t 0.012556767 -s 9 -d 5 -p AODV -e 26 -c 2 -a 0 -i 0 -k RTR
r -t 0.012557100 -s 2 -d -1 -p AODV -e 44 -c 2 -a 0 -i 0 -k RTR
r -t 0.012557100 -s 4 -d -1 -p AODV -e 44 -c 2 -a 0 -i 0 -k RTR
r -t 0.012557100 -s 8 -d -1 -p AODV -e 44 -c 2 -a 0 -i 0 -k RTR
+ -t 0.012557100 -s 2 -d 5 -p AODV -e 26 -c 2 -a 0 -i 0 -k RTR 
- -t 0.012557100 -s 2 -d 5 -p AODV -e 26 -c 2 -a 0 -i 0 -k RTR
h -t 0.012557100 -s 2 -d 5 -p AODV -e 26 -c 2 -a 0 -i 0 -k RTR
+ -t 0.012557100 -s 4 -d 5 -p AODV -e 26 -c 2 -a 0 -i 0 -k RTR 
- -t 0.012557100 -s 4 -d 5 -p AODV -e 26 -c 2 -a 0 -i 0 -k RTR
h -t 0.012557100 -s 4 -d 5 -p AODV -e 26 -c 2 -a 0 -i 0 -k RTR
+ -t 0.012557100 -s 8 -d 5 -p AODV -e 26 -c 2 -a 0 -i 0 -k RTR 
- -t 0.012557100 -s 8 -d 5 -p AODV -e 26 -c 2 -a 0 -i 0 -k RTR
h -t 0.012557100 -s 8 -d 5 -p AODV -e 26 -c 2 -a 0 -i 0 -k RTR
r -t 0.013475767 -s 5 -d -1 -p AODV -e 44 -c 2 -a 0 -i 0 -k RTR
r -t 0.013475767 -s 7 -d -1 -p AODV -e 44 -c 2 -a 0 -i 0 -k RTR
+ -t 0.013475767 -s 5 -d 8 -p AODV -e 26 -c 2 -a 0 -i 0 -k RTR 
- -t 0.013475767 -s 5 -d 8 -p AODV -e 26 -c 2 -a 0 -i 0 -k RTR
h -t 0.013475767 -s 5 -d 8 -p AODV -e 26 -c 2 -a 0 -i 0 -k RTR
+ -t 0.013475767 -s 7 -d 8 -p AODV -e 26 -c 2 -a 0 -i 0 -k RTR 
- -t 0.013475767 -s 7 -d 8 -p AODV -e 26 -c 2 -a 0 -i 0 -k RTR
h -t 0.013475767 -s 7 -d 8 -p AODV -e 26 -c 2 -a 0 -i 0 -k RTR
r -t 0.038432325 -s 0 -d -1 -p AODV -e 44 -c 2 -a 0 -i 0 -k RTR
r -t 0.038432325 -s 6 -d -1 -p AODV -e 44 -c 2 -a 0 -i 0 -k RTR
r -t 0.038432325 -s 4 -d -1 -p AODV -e 44 -c 2 -a 0 -i 0 -k RTR
+ -t 0.038432325 -s 0 -d 3 -p AODV -e 26 -c 2 -a 0 -i 0 -k RTR 
- -t 0.038432325 -s 0 -d 3 -p AODV -e 26 -c 2 -a 0 -i 0 -k RTR
h -t 0.038432325 -s 0 -d 3 -p AODV -e 26 -c 2 -a 0 -i 0 -k RTR
+ -t 0.038432325 -s 6 -d 3 -p AODV -e 26 -c 2 -a 0 -i 0 -k RTR 
- -t 0.038432325 -s 6 -d 3 -p AODV -e 26 -c 2 -a 0 -i 0 -k RTR
h -t 0.038432325 -s 6 -d 3 -p AODV -e 26 -c 2 -a 0 -i 0 -k RTR
+ -t 0.038432325 -s 4 -d 3 -p AODV -e 26 -c 2 -a 0 -i 0 -k RTR 
- -t 0.038432325 -s 4 -d 3 -p AODV -e 26 -c 2 -a 0 -i 0 -k RTR
h -t 0.038432325 -s 4 -d 3 -p AODV -e 26 -c 2 -a 0 -i 0 -k RTR
+ -t 0.750169789 -s 0 -d -1 -p AODV -e 44 -c 2 -a 0 -i 0 -k RTR 
- -t 0.750169789 -s 0 -d -1 -p AODV -e 44 -c 2 -a 0 -i 0 -k RTR
h -t 0.750169789 -s 0 -d -1 -p AODV -e 44 -c 2 -a 0 -i 0 -k RTR
r -t 0.751278455 -s 3 -d -1 -p AODV -e 44 -c 2 -a 0 -i 0 -k RTR
r -t 0.751278455 -s 1 -d -1 -p AODV -e 44 -c 2 -a 0 -i 0 -k RTR
+ -t 0.751278455 -s 3 -d 0 -p AODV -e 26 -c 2 -a 0 -i 0 -k RTR 
- -t 0.751278455 -s 3 -d 0 -p AODV -e 26 -c 2 -a 0 -i 0 -k RTR
h -t 0.751278455 -s 3 -d 0 -p AODV -e 26 -c 2 -a 0 -i 0 -k RTR
+ -t 0.751278455 -s 1 -d 0 -p AODV -e 26 -c 2 -a 0 -i 0 -k RTR 
- -t 0.751278455 -s 1 -d 0 -p AODV -e 26 -c 2 -a 0 -i 0 -k RTR
h -t 0.751278455 -s 1 -d 0 -p AODV -e 26 -c 2 -a 0 -i 0 -k RTR
+ -t 0.757102330 -s 2 -d -1 -p AODV -e 44 -c 2 -a 0 -i 0 -k RTR 
- -t 0.757102330 -s 2 -d -1 -p AODV -e 44 -c 2 -a 0 -i 0 -k RTR
h -t 0.757102330 -s 2 -d -1 -p AODV -e 44 -c 2 -a 0 -i 0 -k RTR
r -t 0.758070664 -s 9 -d -1 -p AODV -e 44 -c 2 -a 0 -i 0 -k RTR
+ -t 0.758070664 -s 9 -d 2 -p AODV -e 26 -c 2 -a 0 -i 0 -k RTR 
- -t 0.758070664 -s 9 -d 2 -p AODV -e 26 -c 2 -a 0 -i 0 -k RTR
h -t 0.758070664 -s 9 -d 2 -p AODV -e 26 -c 2 -a 0 -i 0 -k RTR
r -t 0.758070997 -s 1 -d -1 -p AODV -e 44 -c 2 -a 0 -i 0 -k RTR
r -t 0.758070997 -s 5 -d -1 -p AODV -e 44 -c 2 -a 0 -i 0 -k RTR
+ -t 0.758070997 -s 1 -d 2 -p AODV -e 26 -c 2 -a 0 -i 0 -k RTR 
- -t 0.758070997 -s 1 -d 2 -p AODV -e 26 -c 2 -a 0 -i 0 -k RTR
h -t 0.758070997 -s 1 -d 2 -p AODV -e 26 -c 2 -a 0 -i 0 -k RTR
+ -t 0.758070997 -s 5 -d 2 -p AODV -e 26 -c 2 -a 0 -i 0 -k RTR 
- -t 0.758070997 -s 5 -d 2 -p AODV -e 26 -c 2 -a 0 -i 0 -k RTR
h -t 0.758070997 -s 5 -d 2 -p AODV -e 26 -c 2 -a 0 -i 0 -k RTR
+ -t 0.794061336 -s 3 -d -1 -p AODV -e 44 -c 2 -a 0 -i 0 -k RTR 
- -t 0.794061336 -s 3 -d -1 -p AODV -e 44 -c 2 -a 0 -i 0 -k RTR
h -t 0.794061336 -s 3 -d -1 -p AODV -e 44 -c 2 -a 0 -i 0 -k RTR
r -t 0.795510002 -s 0 -d -1 -p AODV -e 44 -c 2 -a 0 -i 0 -k RTR
r -t 0.795510002 -s 6 -d -1 -p AODV -e 44 -c 2 -a 0 -i 0 -k RTR
r -t 0.795510002 -s 4 -d -1 -p AODV -e 44 -c 2 -a 0 -i 0 -k RTR
+ -t 0.795510002 -s 0 -d 3 -p AODV -e 26 -c 2 -a 0 -i 0 -k RTR 
- -t 0.795510002 -s 0 -d 3 -p AODV -e 26 -c 2 -a 0 -i 0 -k RTR
h -t 0.795510002 -s 0 -d 3 -p AODV -e 26 -c 2 -a 0 -i 0 -k RTR
+ -t 0.795510002 -s 6 -d 3 -p AODV -e 26 -c 2 -a 0 -i 0 -k RTR 
- -t 0.795510002 -s 6 -d 3 -p AODV -e 26 -c 2 -a 0 -i 0 -k RTR
h -t 0.795510002 -s 6 -d 3 -p AODV -e 26 -c 2 -a 0 -i 0 -k RTR
+ -t 0.795510002 -s 4 -d 3 -p AODV -e 26 -c 2 -a 0 -i 0 -k RTR 
- -t 0.795510002 -s 4 -d 3 -p AODV -e 26 -c 2 -a 0 -i 0 -k RTR
h -t 0.795510002 -s 4 -d 3 -p AODV -e 26 -c 2 -a 0 -i 0 -k RTR
+ -t 0.867300876 -s 8 -d -1 -p AODV -e 44 -c 2 -a 0 -i 0 -k RTR 
- -t 0.867300876 -s 8 -d -1 -p AODV -e 44 -c 2 -a 0 -i 0 -k RTR
h -t 0.867300876 -s 8 -d -1 -p AODV -e 44 -c 2 -a 0 -i 0 -k RTR
r -t 0.868209543 -s 5 -d -1 -p AODV -e 44 -c 2 -a 0 -i 0 -k RTR
r -t 0.868209543 -s 7 -d -1 -p AODV -e 44 -c 2 -a 0 -i 0 -k RTR
+ -t 0.868209543 -s 5 -d 8 -p AODV -e 26 -c 2 -a 0 -i 0 -k RTR 
- -t 0.868209543 -s 5 -d 8 -p AODV -e 26 -c 2 -a 0 -i 0 -k RTR
h -t 0.868209543 -s 5 -d 8 -p AODV -e 26 -c 2 -a 0 -i 0 -k RTR
+ -t 0.868209543 -s 7 -d 8 -p AODV -e 26 -c 2 -a 0 -i 0 -k RTR 
- -t 0.868209543 -s 7 -d 8 -p AODV -e 26 -c 2 -a 0 -i 0 -k RTR
h -t 0.868209543 -s 7 -d 8 -p AODV -e 26 -c 2 -a 0 -i 0 -k RTR
+ -t 0.906480886 -s 6 -d -1 -p AODV -e 44 -c 2 -a 0 -i 0 -k RTR 
- -t 0.906480886 -s 6 -d -1 -p AODV -e 44 -c 2 -a 0 -i 0 -k RTR
h -t 0.906480886 -s 6 -d -1 -p AODV -e 44 -c 2 -a 0 -i 0 -k RTR
r -t 0.907469552 -s 3 -d -1 -p AODV -e 44 -c 2 -a 0 -i 0 -k RTR
r -t 0.907469552 -s 7 -d -1 -p AODV -e 44 -c 2 -a 0 -i 0 -k RTR
+ -t 0.907469552 -s 3 -d 6 -p AODV -e 26 -c 2 -a 0 -i 0 -k RTR 
- -t 0.907469552 -s 3 -d 6 -p AODV -e 26 -c 2 -a 0 -i 0 -k RTR
h -t 0.907469552 -s 3 -d 6 -p AODV -e 26 -c 2 -a 0 -i 0 -k RTR
+ -t 0.907469552 -s 7 -d 6 -p AODV -e 26 -c 2 -a 0 -i 0 -k RTR 
- -t 0.907469552 -s 7 -d 6 -p AODV -e 26 -c 2 -a 0 -i 0 -k RTR
h -t 0.907469552 -s 7 -d 6 -p AODV -e 26 -c 2 -a 0 -i 0 -k RTR
+ -t 0.970586691 -s 4 -d -1 -p AODV -e 44 -c 2 -a 0 -i 0 -k RTR 
- -t 0.970586691 -s 4 -d -1 -p AODV -e 44 -c 2 -a 0 -i 0 -k RTR
h -t 0.970586691 -s 4 -d -1 -p AODV -e 44 -c 2 -a 0 -i 0 -k RTR
r -t 0.971875358 -s 1 -d -1 -p AODV -e 44 -c 2 -a 0 -i 0 -k RTR
r -t 0.971875358 -s 3 -d -1 -p AODV -e 44 -c 2 -a 0 -i 0 -k RTR
r -t 0.971875358 -s 7 -d -1 -p AODV -e 44 -c 2 -a 0 -i 0 -k RTR
r -t 0.971875358 -s 5 -d -1 -p AODV -e 44 -c 2 -a 0 -i 0 -k RTR
+ -t 0.971875358 -s 1 -d 4 -p AODV -e 26 -c 2 -a 0 -i 0 -k RTR 
- -t 0.971875358 -s 1 -d 4 -p AODV -e 26 -c 2 -a 0 -i 0 -k RTR
h -t 0.971875358 -s 1 -d 4 -p AODV -e 26 -c 2 -a 0 -i 0 -k RTR
+ -t 0.971875358 -s 3 -d 4 -p AODV -e 26 -c 2 -a 0 -i 0 -k RTR 
- -t 0.971875358 -s 3 -d 4 -p AODV -e 26 -c 2 -a 0 -i 0 -k RTR
h -t 0.971875358 -s 3 -d 4 -p AODV -e 26 -c 2 -a 0 -i 0 -k RTR
+ -t 0.971875358 -s 7 -d 4 -p AODV -e 26 -c 2 -a 0 -i 0 -k RTR 
- -t 0.971875358 -s 7 -d 4 -p AODV -e 26 -c 2 -a 0 -i 0 -k RTR
h -t 0.971875358 -s 7 -d 4 -p AODV -e 26 -c 2 -a 0 -i 0 -k RTR
+ -t 0.971875358 -s 5 -d 4 -p AODV -e 26 -c 2 -a 0 -i 0 -k RTR 
- -t 0.971875358 -s 5 -d 4 -p AODV -e 26 -c 2 -a 0 -i 0 -k RTR
h -t 0.971875358 -s 5 -d 4 -p AODV -e 26 -c 2 -a 0 -i 0 -k RTR
r -t 0.971875436 -s 9 -d -1 -p AODV -e 44 -c 2 -a 0 -i 0 -k RTR
+ -t 0.971875436 -s 9 -d 4 -p AODV -e 26 -c 2 -a 0 -i 0 -k RTR 
- -t 0.971875436 -s 9 -d 4 -p AODV -e 26 -c 2 -a 0 -i 0 -k RTR
h -t 0.971875436 -s 9 -d 4 -p AODV -e 26 -c 2 -a 0 -i 0 -k RTR
+ -t 1.027940358 -s 1 -d -1 -p AODV -e 44 -c 2 -a 0 -i 0 -k RTR 
- -t 1.027940358 -s 1 -d -1 -p AODV -e 44 -c 2 -a 0 -i 0 -k RTR
h -t 1.027940358 -s 1 -d -1 -p AODV -e 44 -c 2 -a 0 -i 0 -k RTR
r -t 1.028829025 -s 0 -d -1 -p AODV -e 44 -c 2 -a 0 -i 0 -k RTR
r -t 1.028829025 -s 4 -d -1 -p AODV -e 44 -c 2 -a 0 -i 0 -k RTR
r -t 1.028829025 -s 2 -d -1 -p AODV -e 44 -c 2 -a 0 -i 0 -k RTR
+ -t 1.028829025 -s 0 -d 1 -p AODV -e 26 -c 2 -a 0 -i 0 -k RTR 
- -t 1.028829025 -s 0 -d 1 -p AODV -e 26 -c 2 -a 0 -i 0 -k RTR
h -t 1.028829025 -s 0 -d 1 -p AODV -e 26 -c 2 -a 0 -i 0 -k RTR
+ -t 1.028829025 -s 4 -d 1 -p AODV -e 26 -c 2 -a 0 -i 0 -k RTR 
- -t 1.028829025 -s 4 -d 1 -p AODV -e 26 -c 2 -a 0 -i 0 -k RTR
h -t 1.028829025 -s 4 -d 1 -p AODV -e 26 -c 2 -a 0 -i 0 -k RTR
+ -t 1.028829025 -s 2 -d 1 -p AODV -e 26 -c 2 -a 0 -i 0 -k RTR 
- -t 1.028829025 -s 2 -d 1 -p AODV -e 26 -c 2 -a 0 -i 0 -k RTR
h -t 1.028829025 -s 2 -d 1 -p AODV -e 26 -c 2 -a 0 -i 0 -k RTR
r -t 1.028829103 -s 9 -d -1 -p AODV -e 44 -c 2 -a 0 -i 0 -k RTR
+ -t 1.028829103 -s 9 -d 1 -p AODV -e 26 -c 2 -a 0 -i 0 -k RTR 
- -t 1.028829103 -s 9 -d 1 -p AODV -e 26 -c 2 -a 0 -i 0 -k RTR
h -t 1.028829103 -s 9 -d 1 -p AODV -e 26 -c 2 -a 0 -i 0 -k RTR
+ -t 1.069432572 -s 9 -d -1 -p AODV -e 44 -c 2 -a 0 -i 0 -k RTR 
- -t 1.069432572 -s 9 -d -1 -p AODV -e 44 -c 2 -a 0 -i 0 -k RTR
h -t 1.069432572 -s 9 -d -1 -p AODV -e 44 -c 2 -a 0 -i 0 -k RTR
r -t 1.070440905 -s 5 -d -1 -p AODV -e 44 -c 2 -a 0 -i 0 -k RTR
r -t 1.070440905 -s 2 -d -1 -p AODV -e 44 -c 2 -a 0 -i 0 -k RTR
+ -t 1.070440905 -s 5 -d 9 -p AODV -e 26 -c 2 -a 0 -i 0 -k RTR 
- -t 1.070440905 -s 5 -d 9 -p AODV -e 26 -c 2 -a 0 -i 0 -k RTR
h -t 1.070440905 -s 5 -d 9 -p AODV -e 26 -c 2 -a 0 -i 0 -k RTR
+ -t 1.070440905 -s 2 -d 9 -p AODV -e 26 -c 2 -a 0 -i 0 -k RTR 
- -t 1.070440905 -s 2 -d 9 -p AODV -e 26 -c 2 -a 0 -i 0 -k RTR
h -t 1.070440905 -s 2 -d 9 -p AODV -e 26 -c 2 -a 0 -i 0 -k RTR
r -t 1.070441317 -s 4 -d -1 -p AODV -e 44 -c 2 -a 0 -i 0 -k RTR
r -t 1.070441317 -s 1 -d -1 -p AODV -e 44 -c 2 -a 0 -i 0 -k RTR
+ -t 1.070441317 -s 4 -d 9 -p AODV -e 26 -c 2 -a 0 -i 0 -k RTR 
- -t 1.070441317 -s 4 -d 9 -p AODV -e 26 -c 2 -a 0 -i 0 -k RTR
h -t 1.070441317 -s 4 -d 9 -p AODV -e 26 -c 2 -a 0 -i 0 -k RTR
+ -t 1.070441317 -s 1 -d 9 -p AODV -e 26 -c 2 -a 0 -i 0 -k RTR 
- -t 1.070441317 -s 1 -d 9 -p AODV -e 26 -c 2 -a 0 -i 0 -k RTR
h -t 1.070441317 -s 1 -d 9 -p AODV -e 26 -c 2 -a 0 -i 0 -k RTR
+ -t 1.149577727 -s 5 -d -1 -p AODV -e 44 -c 2 -a 0 -i 0 -k RTR 
- -t 1.149577727 -s 5 -d -1 -p AODV -e 44 -c 2 -a 0 -i 0 -k RTR
h -t 1.149577727 -s 5 -d -1 -p AODV -e 44 -c 2 -a 0 -i 0 -k RTR
r -t 1.150966060 -s 9 -d -1 -p AODV -e 44 -c 2 -a 0 -i 0 -k RTR
+ -t 1.150966060 -s 9 -d 5 -p AODV -e 26 -c 2 -a 0 -i 0 -k RTR 
- -t 1.150966060 -s 9 -d 5 -p AODV -e 26 -c 2 -a 0 -i 0 -k RTR
h -t 1.150966060 -s 9 -d 5 -p AODV -e 26 -c 2 -a 0 -i 0 -k RTR
r -t 1.150966393 -s 2 -d -1 -p AODV -e 44 -c 2 -a 0 -i 0 -k RTR
r -t 1.150966393 -s 4 -d -1 -p AODV -e 44 -c 2 -a 0 -i 0 -k RTR
r -t 1.150966393 -s 8 -d -1 -p AODV -e 44 -c 2 -a 0 -i 0 -k RTR
+ -t 1.150966393 -s 2 -d 5 -p AODV -e 26 -c 2 -a 0 -i 0 -k RTR 
- -t 1.150966393 -s 2 -d 5 -p AODV -e 26 -c 2 -a 0 -i 0 -k RTR
h -t 1.150966393 -s 2 -d 5 -p AODV -e 26 -c 2 -a 0 -i 0 -k RTR
+ -t 1.150966393 -s 4 -d 5 -p AODV -e 26 -c 2 -a 0 -i 0 -k RTR 
- -t 1.150966393 -s 4 -d 5 -p AODV -e 26 -c 2 -a 0 -i 0 -k RTR
h -t 1.150966393 -s 4 -d 5 -p AODV -e 26 -c 2 -a 0 -i 0 -k RTR
+ -t 1.150966393 -s 8 -d 5 -p AODV -e 26 -c 2 -a 0 -i 0 -k RTR 
- -t 1.150966393 -s 8 -d 5 -p AODV -e 26 -c 2 -a 0 -i 0 -k RTR
h -t 1.150966393 -s 8 -d 5 -p AODV -e 26 -c 2 -a 0 -i 0 -k RTR
+ -t 1.158238026 -s 7 -d -1 -p AODV -e 44 -c 2 -a 0 -i 0 -k RTR 
- -t 1.158238026 -s 7 -d -1 -p AODV -e 44 -c 2 -a 0 -i 0 -k RTR
h -t 1.158238026 -s 7 -d -1 -p AODV -e 44 -c 2 -a 0 -i 0 -k RTR
r -t 1.159694279 -s 4 -d -1 -p AODV -e 44 -c 2 -a 0 -i 0 -k RTR
r -t 1.159694279 -s 6 -d -1 -p AODV -e 44 -c 2 -a 0 -i 0 -k RTR
r -t 1.159694279 -s 8 -d -1 -p AODV -e 44 -c 2 -a 0 -i 0 -k RTR
+ -t 1.159694279 -s 4 -d 7 -p AODV -e 26 -c 2 -a 0 -i 0 -k RTR 
- -t 1.159694279 -s 4 -d 7 -p AODV -e 26 -c 2 -a 0 -i 0 -k RTR
h -t 1.159694279 -s 4 -d 7 -p AODV -e 26 -c 2 -a 0 -i 0 -k RTR
+ -t 1.159694279 -s 6 -d 7 -p AODV -e 26 -c 2 -a 0 -i 0 -k RTR 
- -t 1.159694279 -s 6 -d 7 -p AODV -e 26 -c 2 -a 0 -i 0 -k RTR
h -t 1.159694279 -s 6 -d 7 -p AODV -e 26 -c 2 -a 0 -i 0 -k RTR
+ -t 1.159694279 -s 8 -d 7 -p AODV -e 26 -c 2 -a 0 -i 0 -k RTR 
- -t 1.159694279 -s 8 -d 7 -p AODV -e 26 -c 2 -a 0 -i 0 -k RTR
h -t 1.159694279 -s 8 -d 7 -p AODV -e 26 -c 2 -a 0 -i 0 -k RTR
+ -t 1.672877063 -s 6 -d -1 -p AODV -e 44 -c 2 -a 0 -i 0 -k RTR 
- -t 1.672877063 -s 6 -d -1 -p AODV -e 44 -c 2 -a 0 -i 0 -k RTR
h -t 1.672877063 -s 6 -d -1 -p AODV -e 44 -c 2 -a 0 -i 0 -k RTR
r -t 1.674045730 -s 3 -d -1 -p AODV -e 44 -c 2 -a 0 -i 0 -k RTR
r -t 1.674045730 -s 7 -d -1 -p AODV -e 44 -c 2 -a 0 -i 0 -k RTR
+ -t 1.674045730 -s 3 -d 6 -p AODV -e 26 -c 2 -a 0 -i 0 -k RTR 
- -t 1.674045730 -s 3 -d 6 -p AODV -e 26 -c 2 -a 0 -i 0 -k RTR
h -t 1.674045730 -s 3 -d 6 -p AODV -e 26 -c 2 -a 0 -i 0 -k RTR
+ -t 1.674045730 -s 7 -d 6 -p AODV -e 26 -c 2 -a 0 -i 0 -k RTR 
- -t 1.674045730 -s 7 -d 6 -p AODV -e 26 -c 2 -a 0 -i 0 -k RTR
h -t 1.674045730 -s 7 -d 6 -p AODV -e 26 -c 2 -a 0 -i 0 -k RTR
+ -t 1.773551606 -s 2 -d -1 -p AODV -e 44 -c 2 -a 0 -i 0 -k RTR 
- -t 1.773551606 -s 2 -d -1 -p AODV -e 44 -c 2 -a 0 -i 0 -k RTR
h -t 1.773551606 -s 2 -d -1 -p AODV -e 44 -c 2 -a 0 -i 0 -k RTR
r -t 1.774499940 -s 9 -d -1 -p AODV -e 44 -c 2 -a 0 -i 0 -k RTR
+ -t 1.774499940 -s 9 -d 2 -p AODV -e 26 -c 2 -a 0 -i 0 -k RTR 
- -t 1.774499940 -s 9 -d 2 -p AODV -e 26 -c 2 -a 0 -i 0 -k RTR
h -t 1.774499940 -s 9 -d 2 -p AODV -e 26 -c 2 -a 0 -i 0 -k RTR
r -t 1.774500273 -s 1 -d -1 -p AODV -e 44 -c 2 -a 0 -i 0 -k RTR
r -t 1.774500273 -s 5 -d -1 -p AODV -e 44 -c 2 -a 0 -i 0 -k RTR
+ -t 1.774500273 -s 1 -d 2 -p AODV -e 26 -c 2 -a 0 -i 0 -k RTR 
- -t 1.774500273 -s 1 -d 2 -p AODV -e 26 -c 2 -a 0 -i 0 -k RTR
h -t 1.774500273 -s 1 -d 2 -p AODV -e 26 -c 2 -a 0 -i 0 -k RTR
+ -t 1.774500273 -s 5 -d 2 -p AODV -e 26 -c 2 -a 0 -i 0 -k RTR 
- -t 1.774500273 -s 5 -d 2 -p AODV -e 26 -c 2 -a 0 -i 0 -k RTR
h -t 1.774500273 -s 5 -d 2 -p AODV -e 26 -c 2 -a 0 -i 0 -k RTR
+ -t 1.837528918 -s 1 -d -1 -p AODV -e 44 -c 2 -a 0 -i 0 -k RTR 
- -t 1.837528918 -s 1 -d -1 -p AODV -e 44 -c 2 -a 0 -i 0 -k RTR
h -t 1.837528918 -s 1 -d -1 -p AODV -e 44 -c 2 -a 0 -i 0 -k RTR
r -t 1.838517585 -s 0 -d -1 -p AODV -e 44 -c 2 -a 0 -i 0 -k RTR
r -t 1.838517585 -s 4 -d -1 -p AODV -e 44 -c 2 -a 0 -i 0 -k RTR
r -t 1.838517585 -s 2 -d -1 -p AODV -e 44 -c 2 -a 0 -i 0 -k RTR
+ -t 1.838517585 -s 0 -d 1 -p AODV -e 26 -c 2 -a 0 -i 0 -k RTR 
- -t 1.838517585 -s 0 -d 1 -p AODV -e 26 -c 2 -a 0 -i 0 -k RTR
h -t 1.838517585 -s 0 -d 1 -p AODV -e 26 -c 2 -a 0 -i 0 -k RTR
+ -t 1.838517585 -s 4 -d 1 -p AODV -e 26 -c 2 -a 0 -i 0 -k RTR 
- -t 1.838517585 -s 4 -d 1 -p AODV -e 26 -c 2 -a 0 -i 0 -k RTR
h -t 1.838517585 -s 4 -d 1 -p AODV -e 26 -c 2 -a 0 -i 0 -k RTR
+ -t 1.838517585 -s 2 -d 1 -p AODV -e 26 -c 2 -a 0 -i 0 -k RTR 
- -t 1.838517585 -s 2 -d 1 -p AODV -e 26 -c 2 -a 0 -i 0 -k RTR
h -t 1.838517585 -s 2 -d 1 -p AODV -e 26 -c 2 -a 0 -i 0 -k RTR
r -t 1.838517664 -s 9 -d -1 -p AODV -e 44 -c 2 -a 0 -i 0 -k RTR
+ -t 1.838517664 -s 9 -d 1 -p AODV -e 26 -c 2 -a 0 -i 0 -k RTR 
- -t 1.838517664 -s 9 -d 1 -p AODV -e 26 -c 2 -a 0 -i 0 -k RTR
h -t 1.838517664 -s 9 -d 1 -p AODV -e 26 -c 2 -a 0 -i 0 -k RTR
+ -t 1.847638419 -s 0 -d -1 -p AODV -e 44 -c 2 -a 0 -i 0 -k RTR 
- -t 1.847638419 -s 0 -d -1 -p AODV -e 44 -c 2 -a 0 -i 0 -k RTR
h -t 1.847638419 -s 0 -d -1 -p AODV -e 44 -c 2 -a 0 -i 0 -k RTR
r -t 1.848727086 -s 3 -d -1 -p AODV -e 44 -c 2 -a 0 -i 0 -k RTR
r -t 1.848727086 -s 1 -d -1 -p AODV -e 44 -c 2 -a 0 -i 0 -k RTR
+ -t 1.848727086 -s 3 -d 0 -p AODV -e 26 -c 2 -a 0 -i 0 -k RTR 
- -t 1.848727086 -s 3 -d 0 -p AODV -e 26 -c 2 -a 0 -i 0 -k RTR
h -t 1.848727086 -s 3 -d 0 -p AODV -e 26 -c 2 -a 0 -i 0 -k RTR
+ -t 1.848727086 -s 1 -d 0 -p AODV -e 26 -c 2 -a 0 -i 0 -k RTR 
- -t 1.848727086 -s 1 -d 0 -p AODV -e 26 -c 2 -a 0 -i 0 -k RTR
h -t 1.848727086 -s 1 -d 0 -p AODV -e 26 -c 2 -a 0 -i 0 -k RTR
+ -t 1.851677085 -s 9 -d -1 -p AODV -e 44 -c 2 -a 0 -i 0 -k RTR 
- -t 1.851677085 -s 9 -d -1 -p AODV -e 44 -c 2 -a 0 -i 0 -k RTR
h -t 1.851677085 -s 9 -d -1 -p AODV -e 44 -c 2 -a 0 -i 0 -k RTR
r -t 1.853963070 -s 5 -d -1 -p AODV -e 44 -c 2 -a 0 -i 0 -k RTR
r -t 1.853963070 -s 2 -d -1 -p AODV -e 44 -c 2 -a 0 -i 0 -k RTR
+ -t 1.853963070 -s 5 -d 9 -p AODV -e 26 -c 2 -a 0 -i 0 -k RTR 
- -t 1.853963070 -s 5 -d 9 -p AODV -e 26 -c 2 -a 0 -i 0 -k RTR
h -t 1.853963070 -s 5 -d 9 -p AODV -e 26 -c 2 -a 0 -i 0 -k RTR
+ -t 1.853963070 -s 2 -d 9 -p AODV -e 26 -c 2 -a 0 -i 0 -k RTR 
- -t 1.853963070 -s 2 -d 9 -p AODV -e 26 -c 2 -a 0 -i 0 -k RTR
h -t 1.853963070 -s 2 -d 9 -p AODV -e 26 -c 2 -a 0 -i 0 -k RTR
r -t 1.853963482 -s 4 -d -1 -p AODV -e 44 -c 2 -a 0 -i 0 -k RTR
r -t 1.853963482 -s 1 -d -1 -p AODV -e 44 -c 2 -a 0 -i 0 -k RTR
+ -t 1.853963482 -s 4 -d 9 -p AODV -e 26 -c 2 -a 0 -i 0 -k RTR 
- -t 1.853963482 -s 4 -d 9 -p AODV -e 26 -c 2 -a 0 -i 0 -k RTR
h -t 1.853963482 -s 4 -d 9 -p AODV -e 26 -c 2 -a 0 -i 0 -k RTR
+ -t 1.853963482 -s 1 -d 9 -p AODV -e 26 -c 2 -a 0 -i 0 -k RTR 
- -t 1.853963482 -s 1 -d 9 -p AODV -e 26 -c 2 -a 0 -i 0 -k RTR
h -t 1.853963482 -s 1 -d 9 -p AODV -e 26 -c 2 -a 0 -i 0 -k RTR
+ -t 1.890362385 -s 8 -d -1 -p AODV -e 44 -c 2 -a 0 -i 0 -k RTR 
- -t 1.890362385 -s 8 -d -1 -p AODV -e 44 -c 2 -a 0 -i 0 -k RTR
h -t 1.890362385 -s 8 -d -1 -p AODV -e 44 -c 2 -a 0 -i 0 -k RTR
r -t 1.891711051 -s 5 -d -1 -p AODV -e 44 -c 2 -a 0 -i 0 -k RTR
r -t 1.891711051 -s 7 -d -1 -p AODV -e 44 -c 2 -a 0 -i 0 -k RTR
+ -t 1.891711051 -s 5 -d 8 -p AODV -e 26 -c 2 -a 0 -i 0 -k RTR 
- -t 1.891711051 -s 5 -d 8 -p AODV -e 26 -c 2 -a 0 -i 0 -k RTR
h -t 1.891711051 -s 5 -d 8 -p AODV -e 26 -c 2 -a 0 -i 0 -k RTR
+ -t 1.891711051 -s 7 -d 8 -p AODV -e 26 -c 2 -a 0 -i 0 -k RTR 
- -t 1.891711051 -s 7 -d 8 -p AODV -e 26 -c 2 -a 0 -i 0 -k RTR
h -t 1.891711051 -s 7 -d 8 -p AODV -e 26 -c 2 -a 0 -i 0 -k RTR
+ -t 1.911981600 -s 3 -d -1 -p AODV -e 44 -c 2 -a 0 -i 0 -k RTR 
- -t 1.911981600 -s 3 -d -1 -p AODV -e 44 -c 2 -a 0 -i 0 -k RTR
h -t 1.911981600 -s 3 -d -1 -p AODV -e 44 -c 2 -a 0 -i 0 -k RTR
r -t 1.913250267 -s 0 -d -1 -p AODV -e 44 -c 2 -a 0 -i 0 -k RTR
r -t 1.913250267 -s 6 -d -1 -p AODV -e 44 -c 2 -a 0 -i 0 -k RTR
r -t 1.913250267 -s 4 -d -1 -p AODV -e 44 -c 2 -a 0 -i 0 -k RTR
+ -t 1.913250267 -s 0 -d 3 -p AODV -e 26 -c 2 -a 0 -i 0 -k RTR 
- -t 1.913250267 -s 0 -d 3 -p AODV -e 26 -c 2 -a 0 -i 0 -k RTR
h -t 1.913250267 -s 0 -d 3 -p AODV -e 26 -c 2 -a 0 -i 0 -k RTR
+ -t 1.913250267 -s 6 -d 3 -p AODV -e 26 -c 2 -a 0 -i 0 -k RTR 
- -t 1.913250267 -s 6 -d 3 -p AODV -e 26 -c 2 -a 0 -i 0 -k RTR
h -t 1.913250267 -s 6 -d 3 -p AODV -e 26 -c 2 -a 0 -i 0 -k RTR
+ -t 1.913250267 -s 4 -d 3 -p AODV -e 26 -c 2 -a 0 -i 0 -k RTR 
- -t 1.913250267 -s 4 -d 3 -p AODV -e 26 -c 2 -a 0 -i 0 -k RTR
h -t 1.913250267 -s 4 -d 3 -p AODV -e 26 -c 2 -a 0 -i 0 -k RTR
+ -t 2.014066163 -s 5 -d -1 -p AODV -e 44 -c 2 -a 0 -i 0 -k RTR 
- -t 2.014066163 -s 5 -d -1 -p AODV -e 44 -c 2 -a 0 -i 0 -k RTR
h -t 2.014066163 -s 5 -d -1 -p AODV -e 44 -c 2 -a 0 -i 0 -k RTR
r -t 2.014954496 -s 9 -d -1 -p AODV -e 44 -c 2 -a 0 -i 0 -k RTR
+ -t 2.014954496 -s 9 -d 5 -p AODV -e 26 -c 2 -a 0 -i 0 -k RTR 
- -t 2.014954496 -s 9 -d 5 -p AODV -e 26 -c 2 -a 0 -i 0 -k RTR
h -t 2.014954496 -s 9 -d 5 -p AODV -e 26 -c 2 -a 0 -i 0 -k RTR
r -t 2.014954830 -s 2 -d -1 -p AODV -e 44 -c 2 -a 0 -i 0 -k RTR
r -t 2.014954830 -s 4 -d -1 -p AODV -e 44 -c 2 -a 0 -i 0 -k RTR
r -t 2.014954830 -s 8 -d -1 -p AODV -e 44 -c 2 -a 0 -i 0 -k RTR
+ -t 2.014954830 -s 2 -d 5 -p AODV -e 26 -c 2 -a 0 -i 0 -k RTR 
- -t 2.014954830 -s 2 -d 5 -p AODV -e 26 -c 2 -a 0 -i 0 -k RTR
h -t 2.014954830 -s 2 -d 5 -p AODV -e 26 -c 2 -a 0 -i 0 -k RTR
+ -t 2.014954830 -s 4 -d 5 -p AODV -e 26 -c 2 -a 0 -i 0 -k RTR 
- -t 2.014954830 -s 4 -d 5 -p AODV -e 26 -c 2 -a 0 -i 0 -k RTR
h -t 2.014954830 -s 4 -d 5 -p AODV -e 26 -c 2 -a 0 -i 0 -k RTR
+ -t 2.014954830 -s 8 -d 5 -p AODV -e 26 -c 2 -a 0 -i 0 -k RTR 
- -t 2.014954830 -s 8 -d 5 -p AODV -e 26 -c 2 -a 0 -i 0 -k RTR
h -t 2.014954830 -s 8 -d 5 -p AODV -e 26 -c 2 -a 0 -i 0 -k RTR
+ -t 2.123502609 -s 4 -d -1 -p AODV -e 44 -c 2 -a 0 -i 0 -k RTR 
- -t 2.123502609 -s 4 -d -1 -p AODV -e 44 -c 2 -a 0 -i 0 -k RTR
h -t 2.123502609 -s 4 -d -1 -p AODV -e 44 -c 2 -a 0 -i 0 -k RTR
r -t 2.124611276 -s 1 -d -1 -p AODV -e 44 -c 2 -a 0 -i 0 -k RTR
r -t 2.124611276 -s 3 -d -1 -p AODV -e 44 -c 2 -a 0 -i 0 -k RTR
r -t 2.124611276 -s 7 -d -1 -p AODV -e 44 -c 2 -a 0 -i 0 -k RTR
r -t 2.124611276 -s 5 -d -1 -p AODV -e 44 -c 2 -a 0 -i 0 -k RTR
+ -t 2.124611276 -s 1 -d 4 -p AODV -e 26 -c 2 -a 0 -i 0 -k RTR 
- -t 2.124611276 -s 1 -d 4 -p AODV -e 26 -c 2 -a 0 -i 0 -k RTR
h -t 2.124611276 -s 1 -d 4 -p AODV -e 26 -c 2 -a 0 -i 0 -k RTR
+ -t 2.124611276 -s 3 -d 4 -p AODV -e 26 -c 2 -a 0 -i 0 -k RTR 
- -t 2.124611276 -s 3 -d 4 -p AODV -e 26 -c 2 -a 0 -i 0 -k RTR
h -t 2.124611276 -s 3 -d 4 -p AODV -e 26 -c 2 -a 0 -i 0 -k RTR
+ -t 2.124611276 -s 7 -d 4 -p AODV -e 26 -c 2 -a 0 -i 0 -k RTR 
- -t 2.124611276 -s 7 -d 4 -p AODV -e 26 -c 2 -a 0 -i 0 -k RTR
h -t 2.124611276 -s 7 -d 4 -p AODV -e 26 -c 2 -a 0 -i 0 -k RTR
+ -t 2.124611276 -s 5 -d 4 -p AODV -e 26 -c 2 -a 0 -i 0 -k RTR 
- -t 2.124611276 -s 5 -d 4 -p AODV -e 26 -c 2 -a 0 -i 0 -k RTR
h -t 2.124611276 -s 5 -d 4 -p AODV -e 26 -c 2 -a 0 -i 0 -k RTR
r -t 2.124611355 -s 9 -d -1 -p AODV -e 44 -c 2 -a 0 -i 0 -k RTR
+ -t 2.124611355 -s 9 -d 4 -p AODV -e 26 -c 2 -a 0 -i 0 -k RTR 
- -t 2.124611355 -s 9 -d 4 -p AODV -e 26 -c 2 -a 0 -i 0 -k RTR
h -t 2.124611355 -s 9 -d 4 -p AODV -e 26 -c 2 -a 0 -i 0 -k RTR
+ -t 2.175914328 -s 7 -d -1 -p AODV -e 44 -c 2 -a 0 -i 0 -k RTR 
- -t 2.175914328 -s 7 -d -1 -p AODV -e 44 -c 2 -a 0 -i 0 -k RTR
h -t 2.175914328 -s 7 -d -1 -p AODV -e 44 -c 2 -a 0 -i 0 -k RTR
r -t 2.177222995 -s 4 -d -1 -p AODV -e 44 -c 2 -a 0 -i 0 -k RTR
r -t 2.177222995 -s 6 -d -1 -p AODV -e 44 -c 2 -a 0 -i 0 -k RTR
r -t 2.177222995 -s 8 -d -1 -p AODV -e 44 -c 2 -a 0 -i 0 -k RTR
+ -t 2.177222995 -s 4 -d 7 -p AODV -e 26 -c 2 -a 0 -i 0 -k RTR 
- -t 2.177222995 -s 4 -d 7 -p AODV -e 26 -c 2 -a 0 -i 0 -k RTR
h -t 2.177222995 -s 4 -d 7 -p AODV -e 26 -c 2 -a 0 -i 0 -k RTR
+ -t 2.177222995 -s 6 -d 7 -p AODV -e 26 -c 2 -a 0 -i 0 -k RTR 
- -t 2.177222995 -s 6 -d 7 -p AODV -e 26 -c 2 -a 0 -i 0 -k RTR
h -t 2.177222995 -s 6 -d 7 -p AODV -e 26 -c 2 -a 0 -i 0 -k RTR
+ -t 2.177222995 -s 8 -d 7 -p AODV -e 26 -c 2 -a 0 -i 0 -k RTR 
- -t 2.177222995 -s 8 -d 7 -p AODV -e 26 -c 2 -a 0 -i 0 -k RTR
h -t 2.177222995 -s 8 -d 7 -p AODV -e 26 -c 2 -a 0 -i 0 -k RTR
+ -t 2.503805023 -s 6 -d -1 -p AODV -e 44 -c 2 -a 0 -i 0 -k RTR 
- -t 2.503805023 -s 6 -d -1 -p AODV -e 44 -c 2 -a 0 -i 0 -k RTR
h -t 2.503805023 -s 6 -d -1 -p AODV -e 44 -c 2 -a 0 -i 0 -k RTR
r -t 2.504693690 -s 3 -d -1 -p AODV -e 44 -c 2 -a 0 -i 0 -k RTR
r -t 2.504693690 -s 7 -d -1 -p AODV -e 44 -c 2 -a 0 -i 0 -k RTR
+ -t 2.504693690 -s 3 -d 6 -p AODV -e 26 -c 2 -a 0 -i 0 -k RTR 
- -t 2.504693690 -s 3 -d 6 -p AODV -e 26 -c 2 -a 0 -i 0 -k RTR
h -t 2.504693690 -s 3 -d 6 -p AODV -e 26 -c 2 -a 0 -i 0 -k RTR
+ -t 2.504693690 -s 7 -d 6 -p AODV -e 26 -c 2 -a 0 -i 0 -k RTR 
- -t 2.504693690 -s 7 -d 6 -p AODV -e 26 -c 2 -a 0 -i 0 -k RTR
h -t 2.504693690 -s 7 -d 6 -p AODV -e 26 -c 2 -a 0 -i 0 -k RTR
+ -t 2.606776347 -s 2 -d -1 -p AODV -e 44 -c 2 -a 0 -i 0 -k RTR 
- -t 2.606776347 -s 2 -d -1 -p AODV -e 44 -c 2 -a 0 -i 0 -k RTR
h -t 2.606776347 -s 2 -d -1 -p AODV -e 44 -c 2 -a 0 -i 0 -k RTR
r -t 2.607724681 -s 9 -d -1 -p AODV -e 44 -c 2 -a 0 -i 0 -k RTR
+ -t 2.607724681 -s 9 -d 2 -p AODV -e 26 -c 2 -a 0 -i 0 -k RTR 
- -t 2.607724681 -s 9 -d 2 -p AODV -e 26 -c 2 -a 0 -i 0 -k RTR
h -t 2.607724681 -s 9 -d 2 -p AODV -e 26 -c 2 -a 0 -i 0 -k RTR
r -t 2.607725014 -s 1 -d -1 -p AODV -e 44 -c 2 -a 0 -i 0 -k RTR
r -t 2.607725014 -s 5 -d -1 -p AODV -e 44 -c 2 -a 0 -i 0 -k RTR
+ -t 2.607725014 -s 1 -d 2 -p AODV -e 26 -c 2 -a 0 -i 0 -k RTR 
- -t 2.607725014 -s 1 -d 2 -p AODV -e 26 -c 2 -a 0 -i 0 -k RTR
h -t 2.607725014 -s 1 -d 2 -p AODV -e 26 -c 2 -a 0 -i 0 -k RTR
+ -t 2.607725014 -s 5 -d 2 -p AODV -e 26 -c 2 -a 0 -i 0 -k RTR 
- -t 2.607725014 -s 5 -d 2 -p AODV -e 26 -c 2 -a 0 -i 0 -k RTR
h -t 2.607725014 -s 5 -d 2 -p AODV -e 26 -c 2 -a 0 -i 0 -k RTR