Sconfig 0.00000 tap: on snoop: rts? on errs? on
Sconfig 0.00000 salvage: on !bd replies? on
Sconfig 0.00000 grat error: on grat reply: on
Sconfig 0.00000 $reply for props: on ring 0 search: on
Sconfig 0.00000 using MOBICACHE
s 15.000000000 _0_ AGT  --- 0 cbr 512 [0 0 0 0] ------- [0:0 16:0 32 0] [0] 0 0
r 15.000000000 _0_ RTR  --- 0 cbr 512 [0 0 0 0] ------- [0:0 16:0 32 0] [0] 0 0
s 15.003127930 _0_ RTR  --- 1 DSR 32 [0 0 0 0] ------- [0:255 16:255 32 0] 1 [1 1] [0 1 0 0->0] [0 0 0 0->0]
r 15.003920263 _3_ RTR  --- 1 DSR 32 [0 ffffffff 0 800] ------- [0:255 16:255 32 0] 1 [1 1] [0 1 0 0->0] [0 0 0 0->0]
r 15.003920401 _27_ RTR  --- 1 DSR 32 [0 ffffffff 0 800] ------- [0:255 16:255 32 0] 1 [1 1] [0 1 0 0->0] [0 0 0 0->0]
r 15.003920597 _6_ RTR  --- 1 DSR 32 [0 ffffffff 0 800] ------- [0:255 16:255 32 0] 1 [1 1] [0 1 0 0->0] [0 0 0 0->0]
r 15.003920597 _1_ RTR  --- 1 DSR 32 [0 ffffffff 0 800] ------- [0:255 16:255 32 0] 1 [1 1] [0 1 0 0->0] [0 0 0 0->0]
r 15.003920675 _25_ RTR  --- 1 DSR 32 [0 ffffffff 0 800] ------- [0:255 16:255 32 0] 1 [1 1] [0 1 0 0->0] [0 0 0 0->0]
r 15.003920675 _4_ RTR  --- 1 DSR 32 [0 ffffffff 0 800] ------- [0:255 16:255 32 0] 1 [1 1] [0 1 0 0->0] [0 0 0 0->0]
s 15.060667516 _0_ RTR  --- 3 DSR 32 [0 0 0 0] ------- [0:255 16:255 32 0] 1 [1 2] [0 2 0 0->16] [0 0 0 0->0]
r 15.061999850 _3_ RTR  --- 3 DSR 32 [0 ffffffff 0 800] ------- [0:255 16:255 32 0] 1 [1 2] [0 2 0 0->16] [0 0 0 0->0]
r 15.061999988 _27_ RTR  --- 3 DSR 32 [0 ffffffff 0 800] ------- [0:255 16:255 32 0] 1 [1 2] [0 2 0 0->16] [0 0 0 0->0]
r 15.062000183 _6_ RTR  --- 3 DSR 32 [0 ffffffff 0 800] ------- [0:255 16:255 32 0] 1 [1 2] [0 2 0 0->16] [0 0 0 0->0]
r 15.062000183 _1_ RTR  --- 3 DSR 32 [0 ffffffff 0 800] ------- [0:255 16:255 32 0] 1 [1 2] [0 2 0 0->16] [0 0 0 0->0]
r 15.062000262 _25_ RTR  --- 3 DSR 32 [0 ffffffff 0 800] ------- [0:255 16:255 32 0] 1 [1 2] [0 2 0 0->16] [0 0 0 0->0]
r 15.062000262 _4_ RTR  --- 3 DSR 32 [0 ffffffff 0 800] ------- [0:255 16:255 32 0] 1 [1 2] [0 2 0 0->16] [0 0 0 0->0]
f 15.062455856 _4_ RTR  --- 3 DSR 48 [0 ffffffff 0 800] ------- [0:255 16:255 32 0] 2 [1 2] [0 2 0 0->16] [0 0 0 0->0]
r 15.063516190 _1_ RTR  --- 3 DSR 48 [0 ffffffff 4 800] ------- [0:255 16:255 32 0] 2 [1 2] [0 2 0 0->16] [0 0 0 0->0]
r 15.063516190 _27_ RTR  --- 3 DSR 48 [0 ffffffff 4 800] ------- [0:255 16:255 32 0] 2 [1 2] [0 2 0 0->16] [0 0 0 0->0]
r 15.063516190 _7_ RTR  --- 3 DSR 48 [0 ffffffff 4 800] ------- [0:255 16:255 32 0] 2 [1 2] [0 2 0 0->16] [0 0 0 0->0]
r 15.063516190 _26_ RTR  --- 3 DSR 48 [0 ffffffff 4 800] ------- [0:255 16:255 32 0] 2 [1 2] [0 2 0 0->16] [0 0 0 0->0]
r 15.063516328 _25_ RTR  --- 3 DSR 48 [0 ffffffff 4 800] ------- [0:255 16:255 32 0] 2 [1 2] [0 2 0 0->16] [0 0 0 0->0]
r 15.063516328 _24_ RTR  --- 3 DSR 48 [0 ffffffff 4 800] ------- [0:255 16:255 32 0] 2 [1 2] [0 2 0 0->16] [0 0 0 0->0]
r 15.063516523 _3_ RTR  --- 3 DSR 48 [0 ffffffff 4 800] ------- [0:255 16:255 32 0] 2 [1 2] [0 2 0 0->16] [0 0 0 0->0]
r 15.063516523 _10_ RTR  --- 3 DSR 48 [0 ffffffff 4 800] ------- [0:255 16:255 32 0] 2 [1 2] [0 2 0 0->16] [0 0 0 0->0]
r 15.063516523 _5_ RTR  --- 3 DSR 48 [0 ffffffff 4 800] ------- [0:255 16:255 32 0] 2 [1 2] [0 2 0 0->16] [0 0 0 0->0]
r 15.063516602 _23_ RTR  --- 3 DSR 48 [0 ffffffff 4 800] ------- [0:255 16:255 32 0] 2 [1 2] [0 2 0 0->16] [0 0 0 0->0]
r 15.063516602 _6_ RTR  --- 3 DSR 48 [0 ffffffff 4 800] ------- [0:255 16:255 32 0] 2 [1 2] [0 2 0 0->16] [0 0 0 0->0]
r 15.063516602 _0_ RTR  --- 3 DSR 48 [0 ffffffff 4 800] ------- [0:255 16:255 32 0] 2 [1 2] [0 2 0 0->16] [0 0 0 0->0]
r 15.063516602 _22_ RTR  --- 3 DSR 48 [0 ffffffff 4 800] ------- [0:255 16:255 32 0] 2 [1 2] [0 2 0 0->16] [0 0 0 0->0]
r 15.063516602 _2_ RTR  --- 3 DSR 48 [0 ffffffff 4 800] ------- [0:255 16:255 32 0] 2 [1 2] [0 2 0 0->16] [0 0 0 0->0]
r 15.063516602 _8_ RTR  --- 3 DSR 48 [0 ffffffff 4 800] ------- [0:255 16:255 32 0] 2 [1 2] [0 2 0 0->16] [0 0 0 0->0]
f 15.064339936 _3_ RTR  --- 3 DSR 48 [0 ffffffff 0 800] ------- [0:255 16:255 32 0] 2 [1 2] [0 2 0 0->16] [0 0 0 0->0]
f 15.064502266 _26_ RTR  --- 3 DSR 68 [0 ffffffff 4 800] ------- [0:255 16:255 32 0] 3 [1 2] [0 2 0 0->16] [0 0 0 0->0]
f 15.065368481 _1_ RTR  --- 3 DSR 48 [0 ffffffff 0 800] ------- [0:255 16:255 32 0] 2 [1 2] [0 2 0 0->16] [0 0 0 0->0]
r 15.065520270 _0_ RTR  --- 3 DSR 48 [0 ffffffff 3 800] ------- [0:255 16:255 32 0] 2 [1 2] [0 2 0 0->16] [0 0 0 0->0]
r 15.065520270 _6_ RTR  --- 3 DSR 48 [0 ffffffff 3 800] ------- [0:255 16:255 32 0] 2 [1 2] [0 2 0 0->16] [0 0 0 0->0]
r 15.065520270 _27_ RTR  --- 3 DSR 48 [0 ffffffff 3 800] ------- [0:255 16:255 32 0] 2 [1 2] [0 2 0 0->16] [0 0 0 0->0]
r 15.065520408 _25_ RTR  --- 3 DSR 48 [0 ffffffff 3 800] ------- [0:255 16:255 32 0] 2 [1 2] [0 2 0 0->16] [0 0 0 0->0]
r 15.065520603 _9_ RTR  --- 3 DSR 48 [0 ffffffff 3 800] ------- [0:255 16:255 32 0] 2 [1 2] [0 2 0 0->16] [0 0 0 0->0]
r 15.065520603 _4_ RTR  --- 3 DSR 48 [0 ffffffff 3 800] ------- [0:255 16:255 32 0] 2 [1 2] [0 2 0 0->16] [0 0 0 0->0]
r 15.065520682 _23_ RTR  --- 3 DSR 48 [0 ffffffff 3 800] ------- [0:255 16:255 32 0] 2 [1 2] [0 2 0 0->16] [0 0 0 0->0]
r 15.065520682 _1_ RTR  --- 3 DSR 48 [0 ffffffff 3 800] ------- [0:255 16:255 32 0] 2 [1 2] [0 2 0 0->16] [0 0 0 0->0]
r 15.065520682 _7_ RTR  --- 3 DSR 48 [0 ffffffff 3 800] ------- [0:255 16:255 32 0] 2 [1 2] [0 2 0 0->16] [0 0 0 0->0]
r 15.066411015 _4_ RTR  --- 3 DSR 48 [0 ffffffff 1 800] ------- [0:255 16:255 32 0] 2 [1 2] [0 2 0 0->16] [0 0 0 0->0]
r 15.066411153 _27_ RTR  --- 3 DSR 48 [0 ffffffff 1 800] ------- [0:255 16:255 32 0] 2 [1 2] [0 2 0 0->16] [0 0 0 0->0]
r 15.066411153 _26_ RTR  --- 3 DSR 48 [0 ffffffff 1 800] ------- [0:255 16:255 32 0] 2 [1 2] [0 2 0 0->16] [0 0 0 0->0]
r 15.066411348 _0_ RTR  --- 3 DSR 48 [0 ffffffff 1 800] ------- [0:255 16:255 32 0] 2 [1 2] [0 2 0 0->16] [0 0 0 0->0]
r 15.066411348 _7_ RTR  --- 3 DSR 48 [0 ffffffff 1 800] ------- [0:255 16:255 32 0] 2 [1 2] [0 2 0 0->16] [0 0 0 0->0]
r 15.066411348 _2_ RTR  --- 3 DSR 48 [0 ffffffff 1 800] ------- [0:255 16:255 32 0] 2 [1 2] [0 2 0 0->16] [0 0 0 0->0]
r 15.066411427 _25_ RTR  --- 3 DSR 48 [0 ffffffff 1 800] ------- [0:255 16:255 32 0] 2 [1 2] [0 2 0 0->16] [0 0 0 0->0]
r 15.066411427 _3_ RTR  --- 3 DSR 48 [0 ffffffff 1 800] ------- [0:255 16:255 32 0] 2 [1 2] [0 2 0 0->16] [0 0 0 0->0]
r 15.066411427 _24_ RTR  --- 3 DSR 48 [0 ffffffff 1 800] ------- [0:255 16:255 32 0] 2 [1 2] [0 2 0 0->16] [0 0 0 0->0]
r 15.066411427 _5_ RTR  --- 3 DSR 48 [0 ffffffff 1 800] ------- [0:255 16:255 32 0] 2 [1 2] [0 2 0 0->16] [0 0 0 0->0]
f 15.066571911 _7_ RTR  --- 3 DSR 68 [0 ffffffff 4 800] ------- [0:255 16:255 32 0] 3 [1 2] [0 2 0 0->16] [0 0 0 0->0]
f 15.066726905 _25_ RTR  --- 3 DSR 48 [0 ffffffff 0 800] ------- [0:255 16:255 32 0] 2 [1 2] [0 2 0 0->16] [0 0 0 0->0]
r 15.067661486 _24_ RTR  --- 3 DSR 68 [0 ffffffff 1a 800] ------- [0:255 16:255 32 0] 3 [1 2] [0 2 0 0->16] [0 0 0 0->0]
r 15.067661486 _4_ RTR  --- 3 DSR 68 [0 ffffffff 1a 800] ------- [0:255 16:255 32 0] 3 [1 2] [0 2 0 0->16] [0 0 0 0->0]
r 15.067661486 _5_ RTR  --- 3 DSR 68 [0 ffffffff 1a 800] ------- [0:255 16:255 32 0] 3 [1 2] [0 2 0 0->16] [0 0 0 0->0]
r 15.067661624 _7_ RTR  --- 3 DSR 68 [0 ffffffff 1a 800] ------- [0:255 16:255 32 0] 3 [1 2] [0 2 0 0->16] [0 0 0 0->0]
r 15.067661624 _1_ RTR  --- 3 DSR 68 [0 ffffffff 1a 800] ------- [0:255 16:255 32 0] 3 [1 2] [0 2 0 0->16] [0 0 0 0->0]
r 15.067661624 _2_ RTR  --- 3 DSR 68 [0 ffffffff 1a 800] ------- [0:255 16:255 32 0] 3 [1 2] [0 2 0 0->16] [0 0 0 0->0]
r 15.067661624 _8_ RTR  --- 3 DSR 68 [0 ffffffff 1a 800] ------- [0:255 16:255 32 0] 3 [1 2] [0 2 0 0->16] [0 0 0 0->0]
r 15.067661820 _22_ RTR  --- 3 DSR 68 [0 ffffffff 1a 800] ------- [0:255 16:255 32 0] 3 [1 2] [0 2 0 0->16] [0 0 0 0->0]
r 15.067661820 _27_ RTR  --- 3 DSR 68 [0 ffffffff 1a 800] ------- [0:255 16:255 32 0] 3 [1 2] [0 2 0 0->16] [0 0 0 0->0]
r 15.067661898 _10_ RTR  --- 3 DSR 68 [0 ffffffff 1a 800] ------- [0:255 16:255 32 0] 3 [1 2] [0 2 0 0->16] [0 0 0 0->0]
r 15.067661898 _25_ RTR  --- 3 DSR 68 [0 ffffffff 1a 800] ------- [0:255 16:255 32 0] 3 [1 2] [0 2 0 0->16] [0 0 0 0->0]
r 15.067661898 _11_ RTR  --- 3 DSR 68 [0 ffffffff 1a 800] ------- [0:255 16:255 32 0] 3 [1 2] [0 2 0 0->16] [0 0 0 0->0]
f 15.067716582 _2_ RTR  --- 3 DSR 68 [0 ffffffff 4 800] ------- [0:255 16:255 32 0] 3 [1 2] [0 2 0 0->16] [0 0 0 0->0]
r 15.068752232 _23_ RTR  --- 3 DSR 48 [0 ffffffff 19 800] ------- [0:255 16:255 32 0] 2 [1 2] [0 2 0 0->16] [0 0 0 0->0]
r 15.068752232 _6_ RTR  --- 3 DSR 48 [0 ffffffff 19 800] ------- [0:255 16:255 32 0] 2 [1 2] [0 2 0 0->16] [0 0 0 0->0]
r 15.068752232 _27_ RTR  --- 3 DSR 48 [0 ffffffff 19 800] ------- [0:255 16:255 32 0] 2 [1 2] [0 2 0 0->16] [0 0 0 0->0]
r 15.068752232 _7_ RTR  --- 3 DSR 48 [0 ffffffff 19 800] ------- [0:255 16:255 32 0] 2 [1 2] [0 2 0 0->16] [0 0 0 0->0]
r 15.068752370 _9_ RTR  --- 3 DSR 48 [0 ffffffff 19 800] ------- [0:255 16:255 32 0] 2 [1 2] [0 2 0 0->16] [0 0 0 0->0]
r 15.068752370 _3_ RTR  --- 3 DSR 48 [0 ffffffff 19 800] ------- [0:255 16:255 32 0] 2 [1 2] [0 2 0 0->16] [0 0 0 0->0]
r 15.068752370 _4_ RTR  --- 3 DSR 48 [0 ffffffff 19 800] ------- [0:255 16:255 32 0] 2 [1 2] [0 2 0 0->16] [0 0 0 0->0]
r 15.068752370 _10_ RTR  --- 3 DSR 48 [0 ffffffff 19 800] ------- [0:255 16:255 32 0] 2 [1 2] [0 2 0 0->16] [0 0 0 0->0]
r 15.068752565 _21_ RTR  --- 3 DSR 48 [0 ffffffff 19 800] ------- [0:255 16:255 32 0] 2 [1 2] [0 2 0 0->16] [0 0 0 0->0]
r 15.068752565 _24_ RTR  --- 3 DSR 48 [0 ffffffff 19 800] ------- [0:255 16:255 32 0] 2 [1 2] [0 2 0 0->16] [0 0 0 0->0]
r 15.068752644 _12_ RTR  --- 3 DSR 48 [0 ffffffff 19 800] ------- [0:255 16:255 32 0] 2 [1 2] [0 2 0 0->16] [0 0 0 0->0]
r 15.068752644 _0_ RTR  --- 3 DSR 48 [0 ffffffff 19 800] ------- [0:255 16:255 32 0] 2 [1 2] [0 2 0 0->16] [0 0 0 0->0]
r 15.068752644 _1_ RTR  --- 3 DSR 48 [0 ffffffff 19 800] ------- [0:255 16:255 32 0] 2 [1 2] [0 2 0 0->16] [0 0 0 0->0]
r 15.068752644 _13_ RTR  --- 3 DSR 48 [0 ffffffff 19 800] ------- [0:255 16:255 32 0] 2 [1 2] [0 2 0 0->16] [0 0 0 0->0]
r 15.068752644 _22_ RTR  --- 3 DSR 48 [0 ffffffff 19 800] ------- [0:255 16:255 32 0] 2 [1 2] [0 2 0 0->16] [0 0 0 0->0]
r 15.068752644 _26_ RTR  --- 3 DSR 48 [0 ffffffff 19 800] ------- [0:255 16:255 32 0] 2 [1 2] [0 2 0 0->16] [0 0 0 0->0]
f 15.068778566 _8_ RTR  --- 3 DSR 68 [0 ffffffff 4 800] ------- [0:255 16:255 32 0] 3 [1 2] [0 2 0 0->16] [0 0 0 0->0]
f 15.069515997 _27_ RTR  --- 3 DSR 48 [0 ffffffff 0 800] ------- [0:255 16:255 32 0] 2 [1 2] [0 2 0 0->16] [0 0 0 0->0]
f 15.069647944 _6_ RTR  --- 3 DSR 48 [0 ffffffff 0 800] ------- [0:255 16:255 32 0] 2 [1 2] [0 2 0 0->16] [0 0 0 0->0]
f 15.069842797 _23_ RTR  --- 3 DSR 68 [0 ffffffff 4 800] ------- [0:255 16:255 32 0] 3 [1 2] [0 2 0 0->16] [0 0 0 0->0]
r 15.069942565 _4_ RTR  --- 3 DSR 68 [0 ffffffff 7 800] ------- [0:255 16:255 32 0] 3 [1 2] [0 2 0 0->16] [0 0 0 0->0]
r 15.069942565 _25_ RTR  --- 3 DSR 68 [0 ffffffff 7 800] ------- [0:255 16:255 32 0] 3 [1 2] [0 2 0 0->16] [0 0 0 0->0]
r 15.069942565 _10_ RTR  --- 3 DSR 68 [0 ffffffff 7 800] ------- [0:255 16:255 32 0] 3 [1 2] [0 2 0 0->16] [0 0 0 0->0]
r 15.069942565 _24_ RTR  --- 3 DSR 68 [0 ffffffff 7 800] ------- [0:255 16:255 32 0] 3 [1 2] [0 2 0 0->16] [0 0 0 0->0]
r 15.069942703 _27_ RTR  --- 3 DSR 68 [0 ffffffff 7 800] ------- [0:255 16:255 32 0] 3 [1 2] [0 2 0 0->16] [0 0 0 0->0]
r 15.069942703 _23_ RTR  --- 3 DSR 68 [0 ffffffff 7 800] ------- [0:255 16:255 32 0] 3 [1 2] [0 2 0 0->16] [0 0 0 0->0]
r 15.069942703 _22_ RTR  --- 3 DSR 68 [0 ffffffff 7 800] ------- [0:255 16:255 32 0] 3 [1 2] [0 2 0 0->16] [0 0 0 0->0]
r 15.069942703 _26_ RTR  --- 3 DSR 68 [0 ffffffff 7 800] ------- [0:255 16:255 32 0] 3 [1 2] [0 2 0 0->16] [0 0 0 0->0]
r 15.069942898 _1_ RTR  --- 3 DSR 68 [0 ffffffff 7 800] ------- [0:255 16:255 32 0] 3 [1 2] [0 2 0 0->16] [0 0 0 0->0]
r 15.069942898 _6_ RTR  --- 3 DSR 68 [0 ffffffff 7 800] ------- [0:255 16:255 32 0] 3 [1 2] [0 2 0 0->16] [0 0 0 0->0]
r 15.069942898 _13_ RTR  --- 3 DSR 68 [0 ffffffff 7 800] ------- [0:255 16:255 32 0] 3 [1 2] [0 2 0 0->16] [0 0 0 0->0]
r 15.069942898 _8_ RTR  --- 3 DSR 68 [0 ffffffff 7 800] ------- [0:255 16:255 32 0] 3 [1 2] [0 2 0 0->16] [0 0 0 0->0]
r 15.069942977 _21_ RTR  --- 3 DSR 68 [0 ffffffff 7 800] ------- [0:255 16:255 32 0] 3 [1 2] [0 2 0 0->16] [0 0 0 0->0]
r 15.069942977 _9_ RTR  --- 3 DSR 68 [0 ffffffff 7 800] ------- [0:255 16:255 32 0] 3 [1 2] [0 2 0 0->16] [0 0 0 0->0]
r 15.069942977 _3_ RTR  --- 3 DSR 68 [0 ffffffff 7 800] ------- [0:255 16:255 32 0] 3 [1 2] [0 2 0 0->16] [0 0 0 0->0]
r 15.069942977 _20_ RTR  --- 3 DSR 68 [0 ffffffff 7 800] ------- [0:255 16:255 32 0] 3 [1 2] [0 2 0 0->16] [0 0 0 0->0]
r 15.069942977 _5_ RTR  --- 3 DSR 68 [0 ffffffff 7 800] ------- [0:255 16:255 32 0] 3 [1 2] [0 2 0 0->16] [0 0 0 0->0]
r 15.069942977 _11_ RTR  --- 3 DSR 68 [0 ffffffff 7 800] ------- [0:255 16:255 32 0] 3 [1 2] [0 2 0 0->16] [0 0 0 0->0]
f 15.070242521 _13_ RTR  --- 3 DSR 68 [0 ffffffff 19 800] ------- [0:255 16:255 32 0] 3 [1 2] [0 2 0 0->16] [0 0 0 0->0]
r 15.070913036 _25_ RTR  --- 3 DSR 48 [0 ffffffff 1b 800] ------- [0:255 16:255 32 0] 2 [1 2] [0 2 0 0->16] [0 0 0 0->0]
r 15.070913036 _3_ RTR  --- 3 DSR 48 [0 ffffffff 1b 800] ------- [0:255 16:255 32 0] 2 [1 2] [0 2 0 0->16] [0 0 0 0->0]
r 15.070913036 _4_ RTR  --- 3 DSR 48 [0 ffffffff 1b 800] ------- [0:255 16:255 32 0] 2 [1 2] [0 2 0 0->16] [0 0 0 0->0]
r 15.070913175 _6_ RTR  --- 3 DSR 48 [0 ffffffff 1b 800] ------- [0:255 16:255 32 0] 2 [1 2] [0 2 0 0->16] [0 0 0 0->0]
r 15.070913175 _0_ RTR  --- 3 DSR 48 [0 ffffffff 1b 800] ------- [0:255 16:255 32 0] 2 [1 2] [0 2 0 0->16] [0 0 0 0->0]
r 15.070913175 _1_ RTR  --- 3 DSR 48 [0 ffffffff 1b 800] ------- [0:255 16:255 32 0] 2 [1 2] [0 2 0 0->16] [0 0 0 0->0]
r 15.070913175 _7_ RTR  --- 3 DSR 48 [0 ffffffff 1b 800] ------- [0:255 16:255 32 0] 2 [1 2] [0 2 0 0->16] [0 0 0 0->0]
r 15.070913370 _23_ RTR  --- 3 DSR 48 [0 ffffffff 1b 800] ------- [0:255 16:255 32 0] 2 [1 2] [0 2 0 0->16] [0 0 0 0->0]
r 15.070913370 _26_ RTR  --- 3 DSR 48 [0 ffffffff 1b 800] ------- [0:255 16:255 32 0] 2 [1 2] [0 2 0 0->16] [0 0 0 0->0]
r 15.070913448 _9_ RTR  --- 3 DSR 48 [0 ffffffff 1b 800] ------- [0:255 16:255 32 0] 2 [1 2] [0 2 0 0->16] [0 0 0 0->0]
r 15.070913448 _10_ RTR  --- 3 DSR 48 [0 ffffffff 1b 800] ------- [0:255 16:255 32 0] 2 [1 2] [0 2 0 0->16] [0 0 0 0->0]
r 15.070913448 _24_ RTR  --- 3 DSR 48 [0 ffffffff 1b 800] ------- [0:255 16:255 32 0] 2 [1 2] [0 2 0 0->16] [0 0 0 0->0]
f 15.071211713 _5_ RTR  --- 3 DSR 68 [0 ffffffff 4 800] ------- [0:255 16:255 32 0] 3 [1 2] [0 2 0 0->16] [0 0 0 0->0]
f 15.071581901 _10_ RTR  --- 3 DSR 68 [0 ffffffff 4 800] ------- [0:255 16:255 32 0] 3 [1 2] [0 2 0 0->16] [0 0 0 0->0]
r 15.072103508 _3_ RTR  --- 3 DSR 48 [0 ffffffff 6 800] ------- [0:255 16:255 32 0] 2 [1 2] [0 2 0 0->16] [0 0 0 0->0]
r 15.072103508 _9_ RTR  --- 3 DSR 48 [0 ffffffff 6 800] ------- [0:255 16:255 32 0] 2 [1 2] [0 2 0 0->16] [0 0 0 0->0]
r 15.072103508 _25_ RTR  --- 3 DSR 48 [0 ffffffff 6 800] ------- [0:255 16:255 32 0] 2 [1 2] [0 2 0 0->16] [0 0 0 0->0]
r 15.072103646 _23_ RTR  --- 3 DSR 48 [0 ffffffff 6 800] ------- [0:255 16:255 32 0] 2 [1 2] [0 2 0 0->16] [0 0 0 0->0]
r 15.072103646 _27_ RTR  --- 3 DSR 48 [0 ffffffff 6 800] ------- [0:255 16:255 32 0] 2 [1 2] [0 2 0 0->16] [0 0 0 0->0]
r 15.072103841 _0_ RTR  --- 3 DSR 48 [0 ffffffff 6 800] ------- [0:255 16:255 32 0] 2 [1 2] [0 2 0 0->16] [0 0 0 0->0]
r 15.072103841 _12_ RTR  --- 3 DSR 48 [0 ffffffff 6 800] ------- [0:255 16:255 32 0] 2 [1 2] [0 2 0 0->16] [0 0 0 0->0]
r 15.072103841 _7_ RTR  --- 3 DSR 48 [0 ffffffff 6 800] ------- [0:255 16:255 32 0] 2 [1 2] [0 2 0 0->16] [0 0 0 0->0]
r 15.072103920 _21_ RTR  --- 3 DSR 48 [0 ffffffff 6 800] ------- [0:255 16:255 32 0] 2 [1 2] [0 2 0 0->16] [0 0 0 0->0]
r 15.072103920 _4_ RTR  --- 3 DSR 48 [0 ffffffff 6 800] ------- [0:255 16:255 32 0] 2 [1 2] [0 2 0 0->16] [0 0 0 0->0]
r 15.072103920 _10_ RTR  --- 3 DSR 48 [0 ffffffff 6 800] ------- [0:255 16:255 32 0] 2 [1 2] [0 2 0 0->16] [0 0 0 0->0]
f 15.072209788 _24_ RTR  --- 3 DSR 68 [0 ffffffff 4 800] ------- [0:255 16:255 32 0] 3 [1 2] [0 2 0 0->16] [0 0 0 0->0]
f 15.072981478 _12_ RTR  --- 3 DSR 68 [0 ffffffff 19 800] ------- [0:255 16:255 32 0] 3 [1 2] [0 2 0 0->16] [0 0 0 0->0]
r 15.073133979 _21_ RTR  --- 3 DSR 68 [0 ffffffff 17 800] ------- [0:255 16:255 32 0] 3 [1 2] [0 2 0 0->16] [0 0 0 0->0]
r 15.073133979 _9_ RTR  --- 3 DSR 68 [0 ffffffff 17 800] ------- [0:255 16:255 32 0] 3 [1 2] [0 2 0 0->16] [0 0 0 0->0]
r 15.073133979 _25_ RTR  --- 3 DSR 68 [0 ffffffff 17 800] ------- [0:255 16:255 32 0] 3 [1 2] [0 2 0 0->16] [0 0 0 0->0]
r 15.073133979 _10_ RTR  --- 3 DSR 68 [0 ffffffff 17 800] ------- [0:255 16:255 32 0] 3 [1 2] [0 2 0 0->16] [0 0 0 0->0]
r 15.073134117 _12_ RTR  --- 3 DSR 68 [0 ffffffff 17 800] ------- [0:255 16:255 32 0] 3 [1 2] [0 2 0 0->16] [0 0 0 0->0]
r 15.073134117 _6_ RTR  --- 3 DSR 68 [0 ffffffff 17 800] ------- [0:255 16:255 32 0] 3 [1 2] [0 2 0 0->16] [0 0 0 0->0]
r 15.073134117 _7_ RTR  --- 3 DSR 68 [0 ffffffff 17 800] ------- [0:255 16:255 32 0] 3 [1 2] [0 2 0 0->16] [0 0 0 0->0]
r 15.073134117 _13_ RTR  --- 3 DSR 68 [0 ffffffff 17 800] ------- [0:255 16:255 32 0] 3 [1 2] [0 2 0 0->16] [0 0 0 0->0]
r 15.073134313 _19_ RTR  --- 3 DSR 68 [0 ffffffff 17 800] ------- [0:255 16:255 32 0] 3 [1 2] [0 2 0 0->16] [0 0 0 0->0]
r 15.073134313 _27_ RTR  --- 3 DSR 68 [0 ffffffff 17 800] ------- [0:255 16:255 32 0] 3 [1 2] [0 2 0 0->16] [0 0 0 0->0]
r 15.073134313 _22_ RTR  --- 3 DSR 68 [0 ffffffff 17 800] ------- [0:255 16:255 32 0] 3 [1 2] [0 2 0 0->16] [0 0 0 0->0]
r 15.073134391 _15_ RTR  --- 3 DSR 68 [0 ffffffff 17 800] ------- [0:255 16:255 32 0] 3 [1 2] [0 2 0 0->16] [0 0 0 0->0]
r 15.073134391 _3_ RTR  --- 3 DSR 68 [0 ffffffff 17 800] ------- [0:255 16:255 32 0] 3 [1 2] [0 2 0 0->16] [0 0 0 0->0]
r 15.073134391 _4_ RTR  --- 3 DSR 68 [0 ffffffff 17 800] ------- [0:255 16:255 32 0] 3 [1 2] [0 2 0 0->16] [0 0 0 0->0]
r 15.073134391 _16_ RTR  --- 3 DSR 68 [0 ffffffff 17 800] ------- [0:255 16:255 32 0] 3 [1 2] [0 2 0 0->16] [0 0 0 0->0]
r 15.073134391 _20_ RTR  --- 3 DSR 68 [0 ffffffff 17 800] ------- [0:255 16:255 32 0] 3 [1 2] [0 2 0 0->16] [0 0 0 0->0]
r 15.073134391 _24_ RTR  --- 3 DSR 68 [0 ffffffff 17 800] ------- [0:255 16:255 32 0] 3 [1 2] [0 2 0 0->16] [0 0 0 0->0]
f 15.073308357 _9_ RTR  --- 3 DSR 68 [0 ffffffff 3 800] ------- [0:255 16:255 32 0] 3 [1 2] [0 2 0 0->16] [0 0 0 0->0]
f 15.073405683 _22_ RTR  --- 3 DSR 68 [0 ffffffff 4 800] ------- [0:255 16:255 32 0] 3 [1 2] [0 2 0 0->16] [0 0 0 0->0]
r 15.074404451 _9_ RTR  --- 3 DSR 68 [0 ffffffff c 800] ------- [0:255 16:255 32 0] 3 [1 2] [0 2 0 0->16] [0 0 0 0->0]
r 15.074404451 _15_ RTR  --- 3 DSR 68 [0 ffffffff c 800] ------- [0:255 16:255 32 0] 3 [1 2] [0 2 0 0->16] [0 0 0 0->0]
r 15.074404451 _21_ RTR  --- 3 DSR 68 [0 ffffffff c 800] ------- [0:255 16:255 32 0] 3 [1 2] [0 2 0 0->16] [0 0 0 0->0]
r 15.074404589 _19_ RTR  --- 3 DSR 68 [0 ffffffff c 800] ------- [0:255 16:255 32 0] 3 [1 2] [0 2 0 0->16] [0 0 0 0->0]
r 15.074404589 _23_ RTR  --- 3 DSR 68 [0 ffffffff c 800] ------- [0:255 16:255 32 0] 3 [1 2] [0 2 0 0->16] [0 0 0 0->0]
r 15.074404784 _6_ RTR  --- 3 DSR 68 [0 ffffffff c 800] ------- [0:255 16:255 32 0] 3 [1 2] [0 2 0 0->16] [0 0 0 0->0]
r 15.074404784 _13_ RTR  --- 3 DSR 68 [0 ffffffff c 800] ------- [0:255 16:255 32 0] 3 [1 2] [0 2 0 0->16] [0 0 0 0->0]
r 15.074404863 _16_ RTR  --- 3 DSR 68 [0 ffffffff c 800] ------- [0:255 16:255 32 0] 3 [1 2] [0 2 0 0->16] [0 0 0 0->0]
s 15.074743628 _0_ AGT  --- 6 cbr 512 [0 0 0 0] ------- [0:0 16:0 32 0] [1] 0 0
r 15.074743628 _0_ RTR  --- 6 cbr 512 [0 0 0 0] ------- [0:0 16:0 32 0] [1] 0 0
f 15.074755102 _11_ RTR  --- 3 DSR 92 [0 ffffffff 1a 800] ------- [0:255 16:255 32 0] 4 [1 2] [0 2 0 0->16] [0 0 0 0->0]
s 15.074969300 _16_ RTR  --- 5 DSR 60 [0 0 0 0] ------- [16:255 0:255 254 12] 4 [0 2] [1 2 4 0->16] [0 0 0 0->0]
f 15.075937882 _20_ RTR  --- 3 DSR 92 [0 ffffffff 7 800] ------- [0:255 16:255 32 0] 4 [1 2] [0 2 0 0->16] [0 0 0 0->0]
f 15.076343964 _21_ RTR  --- 3 DSR 68 [0 ffffffff 19 800] ------- [0:255 16:255 32 0] 3 [1 2] [0 2 0 0->16] [0 0 0 0->0]
r 15.076385060 _6_ RTR  --- 3 DSR 68 [0 ffffffff 9 800] ------- [0:255 16:255 32 0] 3 [1 2] [0 2 0 0->16] [0 0 0 0->0]
r 15.076385060 _12_ RTR  --- 3 DSR 68 [0 ffffffff 9 800] ------- [0:255 16:255 32 0] 3 [1 2] [0 2 0 0->16] [0 0 0 0->0]
r 15.076385060 _23_ RTR  --- 3 DSR 68 [0 ffffffff 9 800] ------- [0:255 16:255 32 0] 3 [1 2] [0 2 0 0->16] [0 0 0 0->0]
r 15.076385198 _21_ RTR  --- 3 DSR 68 [0 ffffffff 9 800] ------- [0:255 16:255 32 0] 3 [1 2] [0 2 0 0->16] [0 0 0 0->0]
r 15.076385198 _25_ RTR  --- 3 DSR 68 [0 ffffffff 9 800] ------- [0:255 16:255 32 0] 3 [1 2] [0 2 0 0->16] [0 0 0 0->0]
r 15.076385393 _3_ RTR  --- 3 DSR 68 [0 ffffffff 9 800] ------- [0:255 16:255 32 0] 3 [1 2] [0 2 0 0->16] [0 0 0 0->0]
r 15.076385393 _15_ RTR  --- 3 DSR 68 [0 ffffffff 9 800] ------- [0:255 16:255 32 0] 3 [1 2] [0 2 0 0->16] [0 0 0 0->0]
r 15.076385393 _10_ RTR  --- 3 DSR 68 [0 ffffffff 9 800] ------- [0:255 16:255 32 0] 3 [1 2] [0 2 0 0->16] [0 0 0 0->0]
r 15.076385472 _19_ RTR  --- 3 DSR 68 [0 ffffffff 9 800] ------- [0:255 16:255 32 0] 3 [1 2] [0 2 0 0->16] [0 0 0 0->0]
r 15.076385472 _27_ RTR  --- 3 DSR 68 [0 ffffffff 9 800] ------- [0:255 16:255 32 0] 3 [1 2] [0 2 0 0->16] [0 0 0 0->0]
r 15.076385472 _7_ RTR  --- 3 DSR 68 [0 ffffffff 9 800] ------- [0:255 16:255 32 0] 3 [1 2] [0 2 0 0->16] [0 0 0 0->0]
r 15.076385472 _13_ RTR  --- 3 DSR 68 [0 ffffffff 9 800] ------- [0:255 16:255 32 0] 3 [1 2] [0 2 0 0->16] [0 0 0 0->0]
f 15.077000988 _15_ RTR  --- 3 DSR 92 [0 ffffffff 17 800] ------- [0:255 16:255 32 0] 4 [1 2] [0 2 0 0->16] [0 0 0 0->0]
r 15.077424297 _19_ RTR  --- 3 DSR 68 [0 ffffffff 15 800] ------- [0:255 16:255 32 0] 3 [1 2] [0 2 0 0->16] [0 0 0 0->0]
r 15.077424297 _12_ RTR  --- 3 DSR 68 [0 ffffffff 15 800] ------- [0:255 16:255 32 0] 3 [1 2] [0 2 0 0->16] [0 0 0 0->0]
r 15.077424297 _23_ RTR  --- 3 DSR 68 [0 ffffffff 15 800] ------- [0:255 16:255 32 0] 3 [1 2] [0 2 0 0->16] [0 0 0 0->0]
r 15.077424297 _13_ RTR  --- 3 DSR 68 [0 ffffffff 15 800] ------- [0:255 16:255 32 0] 3 [1 2] [0 2 0 0->16] [0 0 0 0->0]
r 15.077424435 _15_ RTR  --- 3 DSR 68 [0 ffffffff 15 800] ------- [0:255 16:255 32 0] 3 [1 2] [0 2 0 0->16] [0 0 0 0->0]
r 15.077424435 _9_ RTR  --- 3 DSR 68 [0 ffffffff 15 800] ------- [0:255 16:255 32 0] 3 [1 2] [0 2 0 0->16] [0 0 0 0->0]
r 15.077424435 _10_ RTR  --- 3 DSR 68 [0 ffffffff 15 800] ------- [0:255 16:255 32 0] 3 [1 2] [0 2 0 0->16] [0 0 0 0->0]
r 15.077424435 _16_ RTR  --- 3 DSR 68 [0 ffffffff 15 800] ------- [0:255 16:255 32 0] 3 [1 2] [0 2 0 0->16] [0 0 0 0->0]
r 15.077424631 _25_ RTR  --- 3 DSR 68 [0 ffffffff 15 800] ------- [0:255 16:255 32 0] 3 [1 2] [0 2 0 0->16] [0 0 0 0->0]
r 15.077424631 _20_ RTR  --- 3 DSR 68 [0 ffffffff 15 800] ------- [0:255 16:255 32 0] 3 [1 2] [0 2 0 0->16] [0 0 0 0->0]
r 15.077424709 _6_ RTR  --- 3 DSR 68 [0 ffffffff 15 800] ------- [0:255 16:255 32 0] 3 [1 2] [0 2 0 0->16] [0 0 0 0->0]
r 15.077424709 _7_ RTR  --- 3 DSR 68 [0 ffffffff 15 800] ------- [0:255 16:255 32 0] 3 [1 2] [0 2 0 0->16] [0 0 0 0->0]
r 15.077424709 _18_ RTR  --- 3 DSR 68 [0 ffffffff 15 800] ------- [0:255 16:255 32 0] 3 [1 2] [0 2 0 0->16] [0 0 0 0->0]
r 15.077424709 _22_ RTR  --- 3 DSR 68 [0 ffffffff 15 800] ------- [0:255 16:255 32 0] 3 [1 2] [0 2 0 0->16] [0 0 0 0->0]
r 15.078726964 _18_ RTR  --- 3 DSR 92 [0 ffffffff 14 800] ------- [0:255 16:255 32 0] 4 [1 2] [0 2 0 0->16] [0 0 0 0->0]
r 15.078726964 _13_ RTR  --- 3 DSR 92 [0 ffffffff 14 800] ------- [0:255 16:255 32 0] 4 [1 2] [0 2 0 0->16] [0 0 0 0->0]
r 15.078726964 _22_ RTR  --- 3 DSR 92 [0 ffffffff 14 800] ------- [0:255 16:255 32 0] 4 [1 2] [0 2 0 0->16] [0 0 0 0->0]
r 15.078726964 _14_ RTR  --- 3 DSR 92 [0 ffffffff 14 800] ------- [0:255 16:255 32 0] 4 [1 2] [0 2 0 0->16] [0 0 0 0->0]
r 15.078727102 _16_ RTR  --- 3 DSR 92 [0 ffffffff 14 800] ------- [0:255 16:255 32 0] 4 [1 2] [0 2 0 0->16] [0 0 0 0->0]
r 15.078727102 _10_ RTR  --- 3 DSR 92 [0 ffffffff 14 800] ------- [0:255 16:255 32 0] 4 [1 2] [0 2 0 0->16] [0 0 0 0->0]
r 15.078727102 _11_ RTR  --- 3 DSR 92 [0 ffffffff 14 800] ------- [0:255 16:255 32 0] 4 [1 2] [0 2 0 0->16] [0 0 0 0->0]
r 15.078727102 _17_ RTR  --- 3 DSR 92 [0 ffffffff 14 800] ------- [0:255 16:255 32 0] 4 [1 2] [0 2 0 0->16] [0 0 0 0->0]
r 15.078727297 _21_ RTR  --- 3 DSR 92 [0 ffffffff 14 800] ------- [0:255 16:255 32 0] 4 [1 2] [0 2 0 0->16] [0 0 0 0->0]
r 15.078727297 _24_ RTR  --- 3 DSR 92 [0 ffffffff 14 800] ------- [0:255 16:255 32 0] 4 [1 2] [0 2 0 0->16] [0 0 0 0->0]
r 15.078727376 _7_ RTR  --- 3 DSR 92 [0 ffffffff 14 800] ------- [0:255 16:255 32 0] 4 [1 2] [0 2 0 0->16] [0 0 0 0->0]
r 15.078727376 _23_ RTR  --- 3 DSR 92 [0 ffffffff 14 800] ------- [0:255 16:255 32 0] 4 [1 2] [0 2 0 0->16] [0 0 0 0->0]
r 15.078727376 _19_ RTR  --- 3 DSR 92 [0 ffffffff 14 800] ------- [0:255 16:255 32 0] 4 [1 2] [0 2 0 0->16] [0 0 0 0->0]
r 15.078727376 _8_ RTR  --- 3 DSR 92 [0 ffffffff 14 800] ------- [0:255 16:255 32 0] 4 [1 2] [0 2 0 0->16] [0 0 0 0->0]
f 15.079039158 _17_ RTR  --- 3 DSR 120 [0 ffffffff 14 800] ------- [0:255 16:255 32 0] 5 [1 2] [0 2 0 0->16] [0 0 0 0->0]
s 15.079114533 _16_ RTR  --- 4 DSR 60 [0 0 0 0] ------- [16:255 0:255 254 23] 4 [0 2] [1 2 4 0->16] [0 0 0 0->0]
f 15.079509694 _19_ RTR  --- 3 DSR 92 [0 ffffffff 17 800] ------- [0:255 16:255 32 0] 4 [1 2] [0 2 0 0->16] [0 0 0 0->0]
r 15.079777297 _20_ RTR  --- 3 DSR 68 [0 ffffffff 16 800] ------- [0:255 16:255 32 0] 3 [1 2] [0 2 0 0->16] [0 0 0 0->0]
r 15.079777297 _10_ RTR  --- 3 DSR 68 [0 ffffffff 16 800] ------- [0:255 16:255 32 0] 3 [1 2] [0 2 0 0->16] [0 0 0 0->0]
r 15.079777297 _24_ RTR  --- 3 DSR 68 [0 ffffffff 16 800] ------- [0:255 16:255 32 0] 3 [1 2] [0 2 0 0->16] [0 0 0 0->0]
r 15.079777297 _11_ RTR  --- 3 DSR 68 [0 ffffffff 16 800] ------- [0:255 16:255 32 0] 3 [1 2] [0 2 0 0->16] [0 0 0 0->0]
r 15.079777435 _13_ RTR  --- 3 DSR 68 [0 ffffffff 16 800] ------- [0:255 16:255 32 0] 3 [1 2] [0 2 0 0->16] [0 0 0 0->0]
r 15.079777435 _7_ RTR  --- 3 DSR 68 [0 ffffffff 16 800] ------- [0:255 16:255 32 0] 3 [1 2] [0 2 0 0->16] [0 0 0 0->0]
r 15.079777435 _8_ RTR  --- 3 DSR 68 [0 ffffffff 16 800] ------- [0:255 16:255 32 0] 3 [1 2] [0 2 0 0->16] [0 0 0 0->0]
r 15.079777435 _14_ RTR  --- 3 DSR 68 [0 ffffffff 16 800] ------- [0:255 16:255 32 0] 3 [1 2] [0 2 0 0->16] [0 0 0 0->0]
r 15.079777631 _18_ RTR  --- 3 DSR 68 [0 ffffffff 16 800] ------- [0:255 16:255 32 0] 3 [1 2] [0 2 0 0->16] [0 0 0 0->0]
r 15.079777631 _23_ RTR  --- 3 DSR 68 [0 ffffffff 16 800] ------- [0:255 16:255 32 0] 3 [1 2] [0 2 0 0->16] [0 0 0 0->0]
r 15.079777631 _26_ RTR  --- 3 DSR 68 [0 ffffffff 16 800] ------- [0:255 16:255 32 0] 3 [1 2] [0 2 0 0->16] [0 0 0 0->0]
r 15.079777709 _16_ RTR  --- 3 DSR 68 [0 ffffffff 16 800] ------- [0:255 16:255 32 0] 3 [1 2] [0 2 0 0->16] [0 0 0 0->0]
r 15.079777709 _4_ RTR  --- 3 DSR 68 [0 ffffffff 16 800] ------- [0:255 16:255 32 0] 3 [1 2] [0 2 0 0->16] [0 0 0 0->0]
r 15.079777709 _25_ RTR  --- 3 DSR 68 [0 ffffffff 16 800] ------- [0:255 16:255 32 0] 3 [1 2] [0 2 0 0->16] [0 0 0 0->0]
r 15.079777709 _21_ RTR  --- 3 DSR 68 [0 ffffffff 16 800] ------- [0:255 16:255 32 0] 3 [1 2] [0 2 0 0->16] [0 0 0 0->0]
r 15.079777709 _5_ RTR  --- 3 DSR 68 [0 ffffffff 16 800] ------- [0:255 16:255 32 0] 3 [1 2] [0 2 0 0->16] [0 0 0 0->0]
r 15.079777709 _17_ RTR  --- 3 DSR 68 [0 ffffffff 16 800] ------- [0:255 16:255 32 0] 3 [1 2] [0 2 0 0->16] [0 0 0 0->0]
r 15.080807769 _10_ RTR  --- 3 DSR 68 [0 ffffffff d 800] ------- [0:255 16:255 32 0] 3 [1 2] [0 2 0 0->16] [0 0 0 0->0]
r 15.080807769 _21_ RTR  --- 3 DSR 68 [0 ffffffff d 800] ------- [0:255 16:255 32 0] 3 [1 2] [0 2 0 0->16] [0 0 0 0->0]
r 15.080807769 _16_ RTR  --- 3 DSR 68 [0 ffffffff d 800] ------- [0:255 16:255 32 0] 3 [1 2] [0 2 0 0->16] [0 0 0 0->0]
r 15.080807769 _20_ RTR  --- 3 DSR 68 [0 ffffffff d 800] ------- [0:255 16:255 32 0] 3 [1 2] [0 2 0 0->16] [0 0 0 0->0]
r 15.080807907 _23_ RTR  --- 3 DSR 68 [0 ffffffff d 800] ------- [0:255 16:255 32 0] 3 [1 2] [0 2 0 0->16] [0 0 0 0->0]
r 15.080807907 _19_ RTR  --- 3 DSR 68 [0 ffffffff d 800] ------- [0:255 16:255 32 0] 3 [1 2] [0 2 0 0->16] [0 0 0 0->0]
r 15.080807907 _18_ RTR  --- 3 DSR 68 [0 ffffffff d 800] ------- [0:255 16:255 32 0] 3 [1 2] [0 2 0 0->16] [0 0 0 0->0]
r 15.080807907 _22_ RTR  --- 3 DSR 68 [0 ffffffff d 800] ------- [0:255 16:255 32 0] 3 [1 2] [0 2 0 0->16] [0 0 0 0->0]
r 15.080808102 _7_ RTR  --- 3 DSR 68 [0 ffffffff d 800] ------- [0:255 16:255 32 0] 3 [1 2] [0 2 0 0->16] [0 0 0 0->0]
r 15.080808102 _12_ RTR  --- 3 DSR 68 [0 ffffffff d 800] ------- [0:255 16:255 32 0] 3 [1 2] [0 2 0 0->16] [0 0 0 0->0]
r 15.080808102 _14_ RTR  --- 3 DSR 68 [0 ffffffff d 800] ------- [0:255 16:255 32 0] 3 [1 2] [0 2 0 0->16] [0 0 0 0->0]
r 15.080808181 _25_ RTR  --- 3 DSR 68 [0 ffffffff d 800] ------- [0:255 16:255 32 0] 3 [1 2] [0 2 0 0->16] [0 0 0 0->0]
r 15.080808181 _15_ RTR  --- 3 DSR 68 [0 ffffffff d 800] ------- [0:255 16:255 32 0] 3 [1 2] [0 2 0 0->16] [0 0 0 0->0]
r 15.080808181 _9_ RTR  --- 3 DSR 68 [0 ffffffff d 800] ------- [0:255 16:255 32 0] 3 [1 2] [0 2 0 0->16] [0 0 0 0->0]
r 15.080808181 _24_ RTR  --- 3 DSR 68 [0 ffffffff d 800] ------- [0:255 16:255 32 0] 3 [1 2] [0 2 0 0->16] [0 0 0 0->0]
r 15.080808181 _11_ RTR  --- 3 DSR 68 [0 ffffffff d 800] ------- [0:255 16:255 32 0] 3 [1 2] [0 2 0 0->16] [0 0 0 0->0]
r 15.080808181 _17_ RTR  --- 3 DSR 68 [0 ffffffff d 800] ------- [0:255 16:255 32 0] 3 [1 2] [0 2 0 0->16] [0 0 0 0->0]
f 15.081784806 _14_ RTR  --- 3 DSR 120 [0 ffffffff 14 800] ------- [0:255 16:255 32 0] 5 [1 2] [0 2 0 0->16] [0 0 0 0->0]
r 15.081838102 _23_ RTR  --- 3 DSR 68 [0 ffffffff a 800] ------- [0:255 16:255 32 0] 3 [1 2] [0 2 0 0->16] [0 0 0 0->0]
r 15.081838240 _24_ RTR  --- 3 DSR 68 [0 ffffffff a 800] ------- [0:255 16:255 32 0] 3 [1 2] [0 2 0 0->16] [0 0 0 0->0]