n -t * -s 0  -x 100 -y 0 -Z 0 -z 30  -v circle -c black
n -t * -s 1  -x 300 -y 0 -Z 0 -z 30  -v circle -c black
n -t * -s 2  -x 500 -y 0 -Z 0 -z 30  -v circle -c black
n -t * -s 3  -x 100 -y 100 -Z 0 -z 30  -v circle -c black
n -t * -s 4  -x 300 -y 100 -Z 0 -z 30  -v circle -c black
n -t * -s 5  -x 500 -y 100 -Z 0 -z 30  -v circle -c black
n -t * -s 6  -x 100 -y 200 -Z 0 -z 30  -v circle -c black
n -t * -s 7  -x 300 -y 200 -Z 0 -z 30  -v circle -c black
n -t * -s 8  -x 500 -y 200 -Z 0 -z 30  -v circle -c black
n -t * -s 9  -x 100 -y 300 -Z 0 -z 30  -v circle -c black
n -t * -s 10  -x 300 -y 300 -Z 0 -z 30  -v circle -c black
n -t * -s 11  -x 500 -y 300 -Z 0 -z 30  -v circle -c black
n -t * -s 12  -x 100 -y 400 -Z 0 -z 30  -v circle -c black
n -t * -s 13  -x 300 -y 400 -Z 0 -z 30  -v circle -c black
n -t * -s 14  -x 500 -y 400 -Z 0 -z 30  -v circle -c black
n -t * -s 15  -x 100 -y 500 -Z 0 -z 30  -v circle -c black
n -t * -s 16  -x 300 -y 500 -Z 0 -z 30  -v circle -c black
n -t * -s 17  -x 500 -y 500 -Z 0 -z 30  -v circle -c black
n -t * -s 18  -x 400 -y 500 -Z 0 -z 30  -v circle -c black
n -t * -s 19  -x 200 -y 500 -Z 0 -z 30  -v circle -c black
n -t * -s 20  -x 400 -y 400 -Z 0 -z 30  -v circle -c black
n -t * -s 21  -x 200 -y 400 -Z 0 -z 30  -v circle -c black
n -t * -s 22  -x 400 -y 300 -Z 0 -z 30  -v circle -c black
n -t * -s 23  -x 200 -y 300 -Z 0 -z 30  -v circle -c black
n -t * -s 24  -x 400 -y 200 -Z 0 -z 30  -v circle -c black
n -t * -s 25  -x 200 -y 200 -Z 0 -z 30  -v circle -c black
n -t * -s 26  -x 400 -y 100 -Z 0 -z 30  -v circle -c black
n -t * -s 27  -x 200 -y 100 -Z 0 -z 30  -v circle -c black
V -t * -v 1.0a5 -a 0
W -t * -x 500 -y 500
A -t * -n 1 -p 0 -o 0xffffffff -c 31 -a 1
A -t * -h 1 -m 2147483647 -s 0
+ -t 15.000000000 -s 0 -d -1 -p cbr -e 512 -c 2 -a 0 -i 0 -k AGT 
- -t 15.000000000 -s 0 -d -1 -p cbr -e 512 -c 2 -a 0 -i 0 -k AGT
h -t 15.000000000 -s 0 -d -1 -p cbr -e 512 -c 2 -a 0 -i 0 -k AGT
+ -t 15.003127930 -s 0 -d -1 -p DSR -e 32 -c 2 -a 0 -i 1 -k RTR 
- -t 15.003127930 -s 0 -d -1 -p DSR -e 32 -c 2 -a 0 -i 1 -k RTR
h -t 15.003127930 -s 0 -d -1 -p DSR -e 32 -c 2 -a 0 -i 1 -k RTR
+ -t 15.060667516 -s 0 -d -1 -p DSR -e 32 -c 2 -a 0 -i 3 -k RTR 
- -t 15.060667516 -s 0 -d -1 -p DSR -e 32 -c 2 -a 0 -i 3 -k RTR
h -t 15.060667516 -s 0 -d -1 -p DSR -e 32 -c 2 -a 0 -i 3 -k RTR
+ -t 15.062455856 -s 4 -d -1 -p DSR -e 48 -c 2 -a 0 -i 3 -k RTR 
- -t 15.062455856 -s 4 -d -1 -p DSR -e 48 -c 2 -a 0 -i 3 -k RTR
h -t 15.062455856 -s 4 -d -1 -p DSR -e 48 -c 2 -a 0 -i 3 -k RTR
+ -t 15.064339936 -s 3 -d -1 -p DSR -e 48 -c 2 -a 0 -i 3 -k RTR 
- -t 15.064339936 -s 3 -d -1 -p DSR -e 48 -c 2 -a 0 -i 3 -k RTR
h -t 15.064339936 -s 3 -d -1 -p DSR -e 48 -c 2 -a 0 -i 3 -k RTR
+ -t 15.064502266 -s 26 -d -1 -p DSR -e 68 -c 2 -a 0 -i 3 -k RTR 
- -t 15.064502266 -s 26 -d -1 -p DSR -e 68 -c 2 -a 0 -i 3 -k RTR
h -t 15.064502266 -s 26 -d -1 -p DSR -e 68 -c 2 -a 0 -i 3 -k RTR
+ -t 15.065368481 -s 1 -d -1 -p DSR -e 48 -c 2 -a 0 -i 3 -k RTR 
- -t 15.065368481 -s 1 -d -1 -p DSR -e 48 -c 2 -a 0 -i 3 -k RTR
h -t 15.065368481 -s 1 -d -1 -p DSR -e 48 -c 2 -a 0 -i 3 -k RTR
+ -t 15.066571911 -s 7 -d -1 -p DSR -e 68 -c 2 -a 0 -i 3 -k RTR 
- -t 15.066571911 -s 7 -d -1 -p DSR -e 68 -c 2 -a 0 -i 3 -k RTR
h -t 15.066571911 -s 7 -d -1 -p DSR -e 68 -c 2 -a 0 -i 3 -k RTR
+ -t 15.066726905 -s 25 -d -1 -p DSR -e 48 -c 2 -a 0 -i 3 -k RTR 
- -t 15.066726905 -s 25 -d -1 -p DSR -e 48 -c 2 -a 0 -i 3 -k RTR
h -t 15.066726905 -s 25 -d -1 -p DSR -e 48 -c 2 -a 0 -i 3 -k RTR
+ -t 15.067716582 -s 2 -d -1 -p DSR -e 68 -c 2 -a 0 -i 3 -k RTR 
- -t 15.067716582 -s 2 -d -1 -p DSR -e 68 -c 2 -a 0 -i 3 -k RTR
h -t 15.067716582 -s 2 -d -1 -p DSR -e 68 -c 2 -a 0 -i 3 -k RTR
+ -t 15.068778566 -s 8 -d -1 -p DSR -e 68 -c 2 -a 0 -i 3 -k RTR 
- -t 15.068778566 -s 8 -d -1 -p DSR -e 68 -c 2 -a 0 -i 3 -k RTR
h -t 15.068778566 -s 8 -d -1 -p DSR -e 68 -c 2 -a 0 -i 3 -k RTR
+ -t 15.069515997 -s 27 -d -1 -p DSR -e 48 -c 2 -a 0 -i 3 -k RTR 
- -t 15.069515997 -s 27 -d -1 -p DSR -e 48 -c 2 -a 0 -i 3 -k RTR
h -t 15.069515997 -s 27 -d -1 -p DSR -e 48 -c 2 -a 0 -i 3 -k RTR
+ -t 15.069647944 -s 6 -d -1 -p DSR -e 48 -c 2 -a 0 -i 3 -k RTR 
- -t 15.069647944 -s 6 -d -1 -p DSR -e 48 -c 2 -a 0 -i 3 -k RTR
h -t 15.069647944 -s 6 -d -1 -p DSR -e 48 -c 2 -a 0 -i 3 -k RTR
+ -t 15.069842797 -s 23 -d -1 -p DSR -e 68 -c 2 -a 0 -i 3 -k RTR 
- -t 15.069842797 -s 23 -d -1 -p DSR -e 68 -c 2 -a 0 -i 3 -k RTR
h -t 15.069842797 -s 23 -d -1 -p DSR -e 68 -c 2 -a 0 -i 3 -k RTR
+ -t 15.070242521 -s 13 -d -1 -p DSR -e 68 -c 2 -a 0 -i 3 -k RTR 
- -t 15.070242521 -s 13 -d -1 -p DSR -e 68 -c 2 -a 0 -i 3 -k RTR
h -t 15.070242521 -s 13 -d -1 -p DSR -e 68 -c 2 -a 0 -i 3 -k RTR
+ -t 15.071211713 -s 5 -d -1 -p DSR -e 68 -c 2 -a 0 -i 3 -k RTR 
- -t 15.071211713 -s 5 -d -1 -p DSR -e 68 -c 2 -a 0 -i 3 -k RTR
h -t 15.071211713 -s 5 -d -1 -p DSR -e 68 -c 2 -a 0 -i 3 -k RTR
+ -t 15.071581901 -s 10 -d -1 -p DSR -e 68 -c 2 -a 0 -i 3 -k RTR 
- -t 15.071581901 -s 10 -d -1 -p DSR -e 68 -c 2 -a 0 -i 3 -k RTR
h -t 15.071581901 -s 10 -d -1 -p DSR -e 68 -c 2 -a 0 -i 3 -k RTR
+ -t 15.072209788 -s 24 -d -1 -p DSR -e 68 -c 2 -a 0 -i 3 -k RTR 
- -t 15.072209788 -s 24 -d -1 -p DSR -e 68 -c 2 -a 0 -i 3 -k RTR
h -t 15.072209788 -s 24 -d -1 -p DSR -e 68 -c 2 -a 0 -i 3 -k RTR
+ -t 15.072981478 -s 12 -d -1 -p DSR -e 68 -c 2 -a 0 -i 3 -k RTR 
- -t 15.072981478 -s 12 -d -1 -p DSR -e 68 -c 2 -a 0 -i 3 -k RTR
h -t 15.072981478 -s 12 -d -1 -p DSR -e 68 -c 2 -a 0 -i 3 -k RTR
+ -t 15.073308357 -s 9 -d -1 -p DSR -e 68 -c 2 -a 0 -i 3 -k RTR 
- -t 15.073308357 -s 9 -d -1 -p DSR -e 68 -c 2 -a 0 -i 3 -k RTR
h -t 15.073308357 -s 9 -d -1 -p DSR -e 68 -c 2 -a 0 -i 3 -k RTR
+ -t 15.073405683 -s 22 -d -1 -p DSR -e 68 -c 2 -a 0 -i 3 -k RTR 
- -t 15.073405683 -s 22 -d -1 -p DSR -e 68 -c 2 -a 0 -i 3 -k RTR
h -t 15.073405683 -s 22 -d -1 -p DSR -e 68 -c 2 -a 0 -i 3 -k RTR
+ -t 15.074743628 -s 0 -d -1 -p cbr -e 512 -c 2 -a 0 -i 6 -k AGT 
- -t 15.074743628 -s 0 -d -1 -p cbr -e 512 -c 2 -a 0 -i 6 -k AGT
h -t 15.074743628 -s 0 -d -1 -p cbr -e 512 -c 2 -a 0 -i 6 -k AGT
+ -t 15.074755102 -s 11 -d -1 -p DSR -e 92 -c 2 -a 0 -i 3 -k RTR 
- -t 15.074755102 -s 11 -d -1 -p DSR -e 92 -c 2 -a 0 -i 3 -k RTR
h -t 15.074755102 -s 11 -d -1 -p DSR -e 92 -c 2 -a 0 -i 3 -k RTR
+ -t 15.074969300 -s 16 -d 12 -p DSR -e 60 -c 2 -a 0 -i 5 -k RTR 
- -t 15.074969300 -s 16 -d 12 -p DSR -e 60 -c 2 -a 0 -i 5 -k RTR
h -t 15.074969300 -s 16 -d 12 -p DSR -e 60 -c 2 -a 0 -i 5 -k RTR
+ -t 15.075937882 -s 20 -d -1 -p DSR -e 92 -c 2 -a 0 -i 3 -k RTR 
- -t 15.075937882 -s 20 -d -1 -p DSR -e 92 -c 2 -a 0 -i 3 -k RTR
h -t 15.075937882 -s 20 -d -1 -p DSR -e 92 -c 2 -a 0 -i 3 -k RTR
+ -t 15.076343964 -s 21 -d -1 -p DSR -e 68 -c 2 -a 0 -i 3 -k RTR 
- -t 15.076343964 -s 21 -d -1 -p DSR -e 68 -c 2 -a 0 -i 3 -k RTR
h -t 15.076343964 -s 21 -d -1 -p DSR -e 68 -c 2 -a 0 -i 3 -k RTR
+ -t 15.077000988 -s 15 -d -1 -p DSR -e 92 -c 2 -a 0 -i 3 -k RTR 
- -t 15.077000988 -s 15 -d -1 -p DSR -e 92 -c 2 -a 0 -i 3 -k RTR
h -t 15.077000988 -s 15 -d -1 -p DSR -e 92 -c 2 -a 0 -i 3 -k RTR
+ -t 15.079039158 -s 17 -d -1 -p DSR -e 120 -c 2 -a 0 -i 3 -k RTR 
- -t 15.079039158 -s 17 -d -1 -p DSR -e 120 -c 2 -a 0 -i 3 -k RTR
h -t 15.079039158 -s 17 -d -1 -p DSR -e 120 -c 2 -a 0 -i 3 -k RTR
+ -t 15.079114533 -s 16 -d 23 -p DSR -e 60 -c 2 -a 0 -i 4 -k RTR 
- -t 15.079114533 -s 16 -d 23 -p DSR -e 60 -c 2 -a 0 -i 4 -k RTR
h -t 15.079114533 -s 16 -d 23 -p DSR -e 60 -c 2 -a 0 -i 4 -k RTR
+ -t 15.079509694 -s 19 -d -1 -p DSR -e 92 -c 2 -a 0 -i 3 -k RTR 
- -t 15.079509694 -s 19 -d -1 -p DSR -e 92 -c 2 -a 0 -i 3 -k RTR
h -t 15.079509694 -s 19 -d -1 -p DSR -e 92 -c 2 -a 0 -i 3 -k RTR
+ -t 15.081784806 -s 14 -d -1 -p DSR -e 120 -c 2 -a 0 -i 3 -k RTR 
- -t 15.081784806 -s 14 -d -1 -p DSR -e 120 -c 2 -a 0 -i 3 -k RTR
h -t 15.081784806 -s 14 -d -1 -p DSR -e 120 -c 2 -a 0 -i 3 -k RTR
+ -t 15.082797942 -s 18 -d -1 -p DSR -e 92 -c 2 -a 0 -i 3 -k RTR 
- -t 15.082797942 -s 18 -d -1 -p DSR -e 92 -c 2 -a 0 -i 3 -k RTR
h -t 15.082797942 -s 18 -d -1 -p DSR -e 92 -c 2 -a 0 -i 3 -k RTR
+ -t 15.085594523 -s 16 -d 14 -p DSR -e 76 -c 2 -a 0 -i 12 -k RTR 
- -t 15.085594523 -s 16 -d 14 -p DSR -e 76 -c 2 -a 0 -i 12 -k RTR
h -t 15.085594523 -s 16 -d 14 -p DSR -e 76 -c 2 -a 0 -i 12 -k RTR
+ -t 15.085682266 -s 16 -d 21 -p DSR -e 60 -c 2 -a 0 -i 8 -k RTR 
- -t 15.085682266 -s 16 -d 21 -p DSR -e 60 -c 2 -a 0 -i 8 -k RTR
h -t 15.085682266 -s 16 -d 21 -p DSR -e 60 -c 2 -a 0 -i 8 -k RTR
+ -t 15.086685840 -s 16 -d 13 -p DSR -e 60 -c 2 -a 0 -i 11 -k RTR 
- -t 15.086685840 -s 16 -d 13 -p DSR -e 60 -c 2 -a 0 -i 11 -k RTR
h -t 15.086685840 -s 16 -d 13 -p DSR -e 60 -c 2 -a 0 -i 11 -k RTR
+ -t 15.087859010 -s 16 -d 22 -p DSR -e 60 -c 2 -a 0 -i 10 -k RTR 
- -t 15.087859010 -s 16 -d 22 -p DSR -e 60 -c 2 -a 0 -i 10 -k RTR
h -t 15.087859010 -s 16 -d 22 -p DSR -e 60 -c 2 -a 0 -i 10 -k RTR
+ -t 15.087912442 -s 16 -d 20 -p DSR -e 68 -c 2 -a 0 -i 9 -k RTR 
- -t 15.087912442 -s 16 -d 20 -p DSR -e 68 -c 2 -a 0 -i 9 -k RTR
h -t 15.087912442 -s 16 -d 20 -p DSR -e 68 -c 2 -a 0 -i 9 -k RTR
+ -t 15.088068721 -s 16 -d 18 -p DSR -e 68 -c 2 -a 0 -i 13 -k RTR 
- -t 15.088068721 -s 16 -d 18 -p DSR -e 68 -c 2 -a 0 -i 13 -k RTR
h -t 15.088068721 -s 16 -d 18 -p DSR -e 68 -c 2 -a 0 -i 13 -k RTR
+ -t 15.092988379 -s 12 -d 25 -p DSR -e 60 -c 2 -a 0 -i 5 -k RTR 
- -t 15.092988379 -s 12 -d 25 -p DSR -e 60 -c 2 -a 0 -i 5 -k RTR
h -t 15.092988379 -s 12 -d 25 -p DSR -e 60 -c 2 -a 0 -i 5 -k RTR
+ -t 15.095280321 -s 16 -d 17 -p DSR -e 76 -c 2 -a 0 -i 14 -k RTR 
- -t 15.095280321 -s 16 -d 17 -p DSR -e 76 -c 2 -a 0 -i 14 -k RTR
h -t 15.095280321 -s 16 -d 17 -p DSR -e 76 -c 2 -a 0 -i 14 -k RTR
+ -t 15.096409558 -s 25 -d 0 -p DSR -e 60 -c 2 -a 0 -i 5 -k RTR 
- -t 15.096409558 -s 25 -d 0 -p DSR -e 60 -c 2 -a 0 -i 5 -k RTR
h -t 15.096409558 -s 25 -d 0 -p DSR -e 60 -c 2 -a 0 -i 5 -k RTR
+ -t 15.098396171 -s 16 -d 19 -p DSR -e 68 -c 2 -a 0 -i 15 -k RTR 
- -t 15.098396171 -s 16 -d 19 -p DSR -e 68 -c 2 -a 0 -i 15 -k RTR
h -t 15.098396171 -s 16 -d 19 -p DSR -e 68 -c 2 -a 0 -i 15 -k RTR
+ -t 15.098627794 -s 0 -d 25 -p cbr -e 556 -c 2 -a 0 -i 0 -k RTR 
- -t 15.098627794 -s 0 -d 25 -p cbr -e 556 -c 2 -a 0 -i 0 -k RTR
h -t 15.098627794 -s 0 -d 25 -p cbr -e 556 -c 2 -a 0 -i 0 -k RTR
+ -t 15.104574030 -s 25 -d 12 -p cbr -e 556 -c 2 -a 0 -i 0 -k RTR 
- -t 15.104574030 -s 25 -d 12 -p cbr -e 556 -c 2 -a 0 -i 0 -k RTR
h -t 15.104574030 -s 25 -d 12 -p cbr -e 556 -c 2 -a 0 -i 0 -k RTR
+ -t 15.110680266 -s 12 -d 16 -p cbr -e 556 -c 2 -a 0 -i 0 -k RTR 
- -t 15.110680266 -s 12 -d 16 -p cbr -e 556 -c 2 -a 0 -i 0 -k RTR
h -t 15.110680266 -s 12 -d 16 -p cbr -e 556 -c 2 -a 0 -i 0 -k RTR
+ -t 15.112665175 -s 0 -d -1 -p cbr -e 512 -c 2 -a 0 -i 16 -k AGT 
- -t 15.112665175 -s 0 -d -1 -p cbr -e 512 -c 2 -a 0 -i 16 -k AGT
h -t 15.112665175 -s 0 -d -1 -p cbr -e 512 -c 2 -a 0 -i 16 -k AGT
+ -t 15.112665175 -s 0 -d 25 -p cbr -e 556 -c 2 -a 0 -i 16 -k RTR 
- -t 15.112665175 -s 0 -d 25 -p cbr -e 556 -c 2 -a 0 -i 16 -k RTR
h -t 15.112665175 -s 0 -d 25 -p cbr -e 556 -c 2 -a 0 -i 16 -k RTR
+ -t 15.113051575 -s 18 -d 21 -p DSR -e 68 -c 2 -a 0 -i 13 -k RTR 
- -t 15.113051575 -s 18 -d 21 -p DSR -e 68 -c 2 -a 0 -i 13 -k RTR
h -t 15.113051575 -s 18 -d 21 -p DSR -e 68 -c 2 -a 0 -i 13 -k RTR
+ -t 15.115093811 -s 21 -d 25 -p DSR -e 68 -c 2 -a 0 -i 13 -k RTR 
- -t 15.115093811 -s 21 -d 25 -p DSR -e 68 -c 2 -a 0 -i 13 -k RTR
h -t 15.115093811 -s 21 -d 25 -p DSR -e 68 -c 2 -a 0 -i 13 -k RTR
r -t 15.121070356 -s 16 -d 16 -p cbr -e 512 -c 2 -a 0 -i 0 -k AGT
+ -t 15.123411356 -s 19 -d 23 -p DSR -e 68 -c 2 -a 0 -i 15 -k RTR 
- -t 15.123411356 -s 19 -d 23 -p DSR -e 68 -c 2 -a 0 -i 15 -k RTR
h -t 15.123411356 -s 19 -d 23 -p DSR -e 68 -c 2 -a 0 -i 15 -k RTR
+ -t 15.125453689 -s 25 -d 0 -p DSR -e 68 -c 2 -a 0 -i 13 -k RTR 
- -t 15.125453689 -s 25 -d 0 -p DSR -e 68 -c 2 -a 0 -i 13 -k RTR
h -t 15.125453689 -s 25 -d 0 -p DSR -e 68 -c 2 -a 0 -i 13 -k RTR
+ -t 15.128627794 -s 0 -d 25 -p cbr -e 556 -c 2 -a 0 -i 6 -k RTR 
- -t 15.128627794 -s 0 -d 25 -p cbr -e 556 -c 2 -a 0 -i 6 -k RTR
h -t 15.128627794 -s 0 -d 25 -p cbr -e 556 -c 2 -a 0 -i 6 -k RTR
+ -t 15.131890633 -s 25 -d 12 -p cbr -e 556 -c 2 -a 0 -i 16 -k RTR 
- -t 15.131890633 -s 25 -d 12 -p cbr -e 556 -c 2 -a 0 -i 16 -k RTR
h -t 15.131890633 -s 25 -d 12 -p cbr -e 556 -c 2 -a 0 -i 16 -k RTR
+ -t 15.139919850 -s 12 -d 16 -p cbr -e 556 -c 2 -a 0 -i 16 -k RTR 
- -t 15.139919850 -s 12 -d 16 -p cbr -e 556 -c 2 -a 0 -i 16 -k RTR
h -t 15.139919850 -s 12 -d 16 -p cbr -e 556 -c 2 -a 0 -i 16 -k RTR
r -t 15.145866086 -s 16 -d 16 -p cbr -e 512 -c 2 -a 0 -i 16 -k AGT
+ -t 15.148088420 -s 23 -d 4 -p DSR -e 68 -c 2 -a 0 -i 15 -k RTR 
- -t 15.148088420 -s 23 -d 4 -p DSR -e 68 -c 2 -a 0 -i 15 -k RTR
h -t 15.148088420 -s 23 -d 4 -p DSR -e 68 -c 2 -a 0 -i 15 -k RTR
+ -t 15.150295165 -s 17 -d 20 -p DSR -e 76 -c 2 -a 0 -i 14 -k RTR 
- -t 15.150295165 -s 17 -d 20 -p DSR -e 76 -c 2 -a 0 -i 14 -k RTR
h -t 15.150295165 -s 17 -d 20 -p DSR -e 76 -c 2 -a 0 -i 14 -k RTR
+ -t 15.153284813 -s 4 -d 0 -p DSR -e 68 -c 2 -a 0 -i 15 -k RTR 
- -t 15.153284813 -s 4 -d 0 -p DSR -e 68 -c 2 -a 0 -i 15 -k RTR
h -t 15.153284813 -s 4 -d 0 -p DSR -e 68 -c 2 -a 0 -i 15 -k RTR
+ -t 15.160481358 -s 25 -d 12 -p cbr -e 556 -c 2 -a 0 -i 6 -k RTR 
- -t 15.160481358 -s 25 -d 12 -p cbr -e 556 -c 2 -a 0 -i 6 -k RTR
h -t 15.160481358 -s 25 -d 12 -p cbr -e 556 -c 2 -a 0 -i 6 -k RTR
+ -t 15.165732495 -s 0 -d -1 -p cbr -e 512 -c 2 -a 0 -i 17 -k AGT 
- -t 15.165732495 -s 0 -d -1 -p cbr -e 512 -c 2 -a 0 -i 17 -k AGT
h -t 15.165732495 -s 0 -d -1 -p cbr -e 512 -c 2 -a 0 -i 17 -k AGT
+ -t 15.165732495 -s 0 -d 25 -p cbr -e 532 -c 2 -a 0 -i 17 -k RTR 
- -t 15.165732495 -s 0 -d 25 -p cbr -e 532 -c 2 -a 0 -i 17 -k RTR
h -t 15.165732495 -s 0 -d 25 -p cbr -e 532 -c 2 -a 0 -i 17 -k RTR
+ -t 15.168591047 -s 12 -d 16 -p cbr -e 556 -c 2 -a 0 -i 6 -k RTR 
- -t 15.168591047 -s 12 -d 16 -p cbr -e 556 -c 2 -a 0 -i 6 -k RTR
h -t 15.168591047 -s 12 -d 16 -p cbr -e 556 -c 2 -a 0 -i 6 -k RTR
r -t 15.174917283 -s 16 -d 16 -p cbr -e 512 -c 2 -a 0 -i 6 -k AGT
+ -t 15.176938697 -s 20 -d 7 -p DSR -e 68 -c 2 -a 0 -i 9 -k RTR 
- -t 15.176938697 -s 20 -d 7 -p DSR -e 68 -c 2 -a 0 -i 9 -k RTR
h -t 15.176938697 -s 20 -d 7 -p DSR -e 68 -c 2 -a 0 -i 9 -k RTR
+ -t 15.179077405 -s 22 -d 4 -p DSR -e 60 -c 2 -a 0 -i 10 -k RTR 
- -t 15.179077405 -s 22 -d 4 -p DSR -e 60 -c 2 -a 0 -i 10 -k RTR
h -t 15.179077405 -s 22 -d 4 -p DSR -e 60 -c 2 -a 0 -i 10 -k RTR
+ -t 15.181015641 -s 4 -d 0 -p DSR -e 60 -c 2 -a 0 -i 10 -k RTR 
- -t 15.181015641 -s 4 -d 0 -p DSR -e 60 -c 2 -a 0 -i 10 -k RTR
h -t 15.181015641 -s 4 -d 0 -p DSR -e 60 -c 2 -a 0 -i 10 -k RTR
+ -t 15.188928113 -s 25 -d 12 -p cbr -e 532 -c 2 -a 0 -i 17 -k RTR 
- -t 15.188928113 -s 25 -d 12 -p cbr -e 532 -c 2 -a 0 -i 17 -k RTR
h -t 15.188928113 -s 25 -d 12 -p cbr -e 532 -c 2 -a 0 -i 17 -k RTR
+ -t 15.192815649 -s 0 -d -1 -p cbr -e 512 -c 2 -a 0 -i 18 -k AGT 
- -t 15.192815649 -s 0 -d -1 -p cbr -e 512 -c 2 -a 0 -i 18 -k AGT
h -t 15.192815649 -s 0 -d -1 -p cbr -e 512 -c 2 -a 0 -i 18 -k AGT
+ -t 15.192815649 -s 0 -d 25 -p cbr -e 532 -c 2 -a 0 -i 18 -k RTR 
- -t 15.192815649 -s 0 -d 25 -p cbr -e 532 -c 2 -a 0 -i 18 -k RTR
h -t 15.192815649 -s 0 -d 25 -p cbr -e 532 -c 2 -a 0 -i 18 -k RTR
+ -t 15.194942349 -s 12 -d 16 -p cbr -e 532 -c 2 -a 0 -i 17 -k RTR 
- -t 15.194942349 -s 12 -d 16 -p cbr -e 532 -c 2 -a 0 -i 17 -k RTR
h -t 15.194942349 -s 12 -d 16 -p cbr -e 532 -c 2 -a 0 -i 17 -k RTR
r -t 15.200716585 -s 16 -d 16 -p cbr -e 512 -c 2 -a 0 -i 17 -k AGT
+ -t 15.202849076 -s 7 -d 4 -p DSR -e 68 -c 2 -a 0 -i 9 -k RTR 
- -t 15.202849076 -s 7 -d 4 -p DSR -e 68 -c 2 -a 0 -i 9 -k RTR
h -t 15.202849076 -s 7 -d 4 -p DSR -e 68 -c 2 -a 0 -i 9 -k RTR
+ -t 15.205110076 -s 4 -d 0 -p DSR -e 68 -c 2 -a 0 -i 9 -k RTR 
- -t 15.205110076 -s 4 -d 0 -p DSR -e 68 -c 2 -a 0 -i 9 -k RTR
h -t 15.205110076 -s 4 -d 0 -p DSR -e 68 -c 2 -a 0 -i 9 -k RTR
+ -t 15.210974921 -s 25 -d 12 -p cbr -e 532 -c 2 -a 0 -i 18 -k RTR 
- -t 15.210974921 -s 25 -d 12 -p cbr -e 532 -c 2 -a 0 -i 18 -k RTR
h -t 15.210974921 -s 25 -d 12 -p cbr -e 532 -c 2 -a 0 -i 18 -k RTR
+ -t 15.218792610 -s 12 -d 16 -p cbr -e 532 -c 2 -a 0 -i 18 -k RTR 
- -t 15.218792610 -s 12 -d 16 -p cbr -e 532 -c 2 -a 0 -i 18 -k RTR
h -t 15.218792610 -s 12 -d 16 -p cbr -e 532 -c 2 -a 0 -i 18 -k RTR
+ -t 15.219395225 -s 0 -d -1 -p cbr -e 512 -c 2 -a 0 -i 19 -k AGT 
- -t 15.219395225 -s 0 -d -1 -p cbr -e 512 -c 2 -a 0 -i 19 -k AGT
h -t 15.219395225 -s 0 -d -1 -p cbr -e 512 -c 2 -a 0 -i 19 -k AGT
+ -t 15.219395225 -s 0 -d 25 -p cbr -e 532 -c 2 -a 0 -i 19 -k RTR 
- -t 15.219395225 -s 0 -d 25 -p cbr -e 532 -c 2 -a 0 -i 19 -k RTR
h -t 15.219395225 -s 0 -d 25 -p cbr -e 532 -c 2 -a 0 -i 19 -k RTR
+ -t 15.221059919 -s 13 -d 25 -p DSR -e 60 -c 2 -a 0 -i 11 -k RTR 
- -t 15.221059919 -s 13 -d 25 -p DSR -e 60 -c 2 -a 0 -i 11 -k RTR
h -t 15.221059919 -s 13 -d 25 -p DSR -e 60 -c 2 -a 0 -i 11 -k RTR
+ -t 15.227822155 -s 25 -d 12 -p cbr -e 532 -c 2 -a 0 -i 19 -k RTR 
- -t 15.227822155 -s 25 -d 12 -p cbr -e 532 -c 2 -a 0 -i 19 -k RTR
h -t 15.227822155 -s 25 -d 12 -p cbr -e 532 -c 2 -a 0 -i 19 -k RTR
+ -t 15.233756391 -s 12 -d 16 -p cbr -e 532 -c 2 -a 0 -i 19 -k RTR 
- -t 15.233756391 -s 12 -d 16 -p cbr -e 532 -c 2 -a 0 -i 19 -k RTR
h -t 15.233756391 -s 12 -d 16 -p cbr -e 532 -c 2 -a 0 -i 19 -k RTR
+ -t 15.235815294 -s 25 -d 0 -p DSR -e 60 -c 2 -a 0 -i 11 -k RTR 
- -t 15.235815294 -s 25 -d 0 -p DSR -e 60 -c 2 -a 0 -i 11 -k RTR
h -t 15.235815294 -s 25 -d 0 -p DSR -e 60 -c 2 -a 0 -i 11 -k RTR
r -t 15.241650275 -s 16 -d 16 -p cbr -e 512 -c 2 -a 0 -i 18 -k AGT
r -t 15.247565256 -s 16 -d 16 -p cbr -e 512 -c 2 -a 0 -i 19 -k AGT
+ -t 15.249582671 -s 21 -d 25 -p DSR -e 60 -c 2 -a 0 -i 8 -k RTR 
- -t 15.249582671 -s 21 -d 25 -p DSR -e 60 -c 2 -a 0 -i 8 -k RTR
h -t 15.249582671 -s 21 -d 25 -p DSR -e 60 -c 2 -a 0 -i 8 -k RTR
+ -t 15.253974864 -s 25 -d 0 -p DSR -e 60 -c 2 -a 0 -i 8 -k RTR 
- -t 15.253974864 -s 25 -d 0 -p DSR -e 60 -c 2 -a 0 -i 8 -k RTR
h -t 15.253974864 -s 25 -d 0 -p DSR -e 60 -c 2 -a 0 -i 8 -k RTR
+ -t 15.258885131 -s 14 -d 20 -p DSR -e 76 -c 2 -a 0 -i 12 -k RTR 
- -t 15.258885131 -s 14 -d 20 -p DSR -e 76 -c 2 -a 0 -i 12 -k RTR
h -t 15.258885131 -s 14 -d 20 -p DSR -e 76 -c 2 -a 0 -i 12 -k RTR
+ -t 15.259210468 -s 0 -d -1 -p cbr -e 512 -c 2 -a 0 -i 20 -k AGT 
- -t 15.259210468 -s 0 -d -1 -p cbr -e 512 -c 2 -a 0 -i 20 -k AGT
h -t 15.259210468 -s 0 -d -1 -p cbr -e 512 -c 2 -a 0 -i 20 -k AGT
+ -t 15.259210468 -s 0 -d 25 -p cbr -e 532 -c 2 -a 0 -i 20 -k RTR 
- -t 15.259210468 -s 0 -d 25 -p cbr -e 532 -c 2 -a 0 -i 20 -k RTR
h -t 15.259210468 -s 0 -d 25 -p cbr -e 532 -c 2 -a 0 -i 20 -k RTR
+ -t 15.260844112 -s 23 -d 4 -p DSR -e 60 -c 2 -a 0 -i 4 -k RTR 
- -t 15.260844112 -s 23 -d 4 -p DSR -e 60 -c 2 -a 0 -i 4 -k RTR
h -t 15.260844112 -s 23 -d 4 -p DSR -e 60 -c 2 -a 0 -i 4 -k RTR
+ -t 15.263262349 -s 4 -d 0 -p DSR -e 60 -c 2 -a 0 -i 4 -k RTR 
- -t 15.263262349 -s 4 -d 0 -p DSR -e 60 -c 2 -a 0 -i 4 -k RTR
h -t 15.263262349 -s 4 -d 0 -p DSR -e 60 -c 2 -a 0 -i 4 -k RTR
+ -t 15.269876041 -s 20 -d 7 -p DSR -e 76 -c 2 -a 0 -i 12 -k RTR 
- -t 15.269876041 -s 20 -d 7 -p DSR -e 76 -c 2 -a 0 -i 12 -k RTR
h -t 15.269876041 -s 20 -d 7 -p DSR -e 76 -c 2 -a 0 -i 12 -k RTR
+ -t 15.272162277 -s 7 -d 4 -p DSR -e 76 -c 2 -a 0 -i 12 -k RTR 
- -t 15.272162277 -s 7 -d 4 -p DSR -e 76 -c 2 -a 0 -i 12 -k RTR
h -t 15.272162277 -s 7 -d 4 -p DSR -e 76 -c 2 -a 0 -i 12 -k RTR
+ -t 15.278281456 -s 25 -d 12 -p cbr -e 532 -c 2 -a 0 -i 20 -k RTR 
- -t 15.278281456 -s 25 -d 12 -p cbr -e 532 -c 2 -a 0 -i 20 -k RTR
h -t 15.278281456 -s 25 -d 12 -p cbr -e 532 -c 2 -a 0 -i 20 -k RTR
+ -t 15.280416653 -s 4 -d 0 -p DSR -e 76 -c 2 -a 0 -i 12 -k RTR 
- -t 15.280416653 -s 4 -d 0 -p DSR -e 76 -c 2 -a 0 -i 12 -k RTR
h -t 15.280416653 -s 4 -d 0 -p DSR -e 76 -c 2 -a 0 -i 12 -k RTR
+ -t 15.286471361 -s 12 -d 16 -p cbr -e 532 -c 2 -a 0 -i 20 -k RTR 
- -t 15.286471361 -s 12 -d 16 -p cbr -e 532 -c 2 -a 0 -i 20 -k RTR
h -t 15.286471361 -s 12 -d 16 -p cbr -e 532 -c 2 -a 0 -i 20 -k RTR
r -t 15.292265597 -s 16 -d 16 -p cbr -e 512 -c 2 -a 0 -i 20 -k AGT
+ -t 15.298866776 -s 0 -d -1 -p cbr -e 512 -c 2 -a 0 -i 21 -k AGT 
- -t 15.298866776 -s 0 -d -1 -p cbr -e 512 -c 2 -a 0 -i 21 -k AGT
h -t 15.298866776 -s 0 -d -1 -p cbr -e 512 -c 2 -a 0 -i 21 -k AGT
+ -t 15.298866776 -s 0 -d 25 -p cbr -e 532 -c 2 -a 0 -i 21 -k RTR 
- -t 15.298866776 -s 0 -d 25 -p cbr -e 532 -c 2 -a 0 -i 21 -k RTR
h -t 15.298866776 -s 0 -d 25 -p cbr -e 532 -c 2 -a 0 -i 21 -k RTR
+ -t 15.299333326 -s 20 -d 7 -p DSR -e 76 -c 2 -a 0 -i 14 -k RTR 
- -t 15.299333326 -s 20 -d 7 -p DSR -e 76 -c 2 -a 0 -i 14 -k RTR
h -t 15.299333326 -s 20 -d 7 -p DSR -e 76 -c 2 -a 0 -i 14 -k RTR
+ -t 15.302016679 -s 7 -d 4 -p DSR -e 76 -c 2 -a 0 -i 14 -k RTR 
- -t 15.302016679 -s 7 -d 4 -p DSR -e 76 -c 2 -a 0 -i 14 -k RTR
h -t 15.302016679 -s 7 -d 4 -p DSR -e 76 -c 2 -a 0 -i 14 -k RTR
+ -t 15.304661679 -s 4 -d 0 -p DSR -e 76 -c 2 -a 0 -i 14 -k RTR 
- -t 15.304661679 -s 4 -d 0 -p DSR -e 76 -c 2 -a 0 -i 14 -k RTR
h -t 15.304661679 -s 4 -d 0 -p DSR -e 76 -c 2 -a 0 -i 14 -k RTR
+ -t 15.310586524 -s 25 -d 12 -p cbr -e 532 -c 2 -a 0 -i 21 -k RTR 
- -t 15.310586524 -s 25 -d 12 -p cbr -e 532 -c 2 -a 0 -i 21 -k RTR
h -t 15.310586524 -s 25 -d 12 -p cbr -e 532 -c 2 -a 0 -i 21 -k RTR
+ -t 15.316580760 -s 12 -d 16 -p cbr -e 532 -c 2 -a 0 -i 21 -k RTR 
- -t 15.316580760 -s 12 -d 16 -p cbr -e 532 -c 2 -a 0 -i 21 -k RTR
h -t 15.316580760 -s 12 -d 16 -p cbr -e 532 -c 2 -a 0 -i 21 -k RTR
r -t 15.325191768 -s 16 -d 16 -p cbr -e 512 -c 2 -a 0 -i 21 -k AGT
+ -t 15.367205263 -s 0 -d -1 -p cbr -e 512 -c 2 -a 0 -i 22 -k AGT 
- -t 15.367205263 -s 0 -d -1 -p cbr -e 512 -c 2 -a 0 -i 22 -k AGT
h -t 15.367205263 -s 0 -d -1 -p cbr -e 512 -c 2 -a 0 -i 22 -k AGT
+ -t 15.367205263 -s 0 -d 25 -p cbr -e 532 -c 2 -a 0 -i 22 -k RTR 
- -t 15.367205263 -s 0 -d 25 -p cbr -e 532 -c 2 -a 0 -i 22 -k RTR
h -t 15.367205263 -s 0 -d 25 -p cbr -e 532 -c 2 -a 0 -i 22 -k RTR
+ -t 15.372775499 -s 25 -d 12 -p cbr -e 532 -c 2 -a 0 -i 22 -k RTR 
- -t 15.372775499 -s 25 -d 12 -p cbr -e 532 -c 2 -a 0 -i 22 -k RTR
h -t 15.372775499 -s 25 -d 12 -p cbr -e 532 -c 2 -a 0 -i 22 -k RTR
+ -t 15.378569735 -s 12 -d 16 -p cbr -e 532 -c 2 -a 0 -i 22 -k RTR 
- -t 15.378569735 -s 12 -d 16 -p cbr -e 532 -c 2 -a 0 -i 22 -k RTR
h -t 15.378569735 -s 12 -d 16 -p cbr -e 532 -c 2 -a 0 -i 22 -k RTR
r -t 15.384323971 -s 16 -d 16 -p cbr -e 512 -c 2 -a 0 -i 22 -k AGT
+ -t 15.397733639 -s 0 -d -1 -p cbr -e 512 -c 2 -a 0 -i 23 -k AGT 
- -t 15.397733639 -s 0 -d -1 -p cbr -e 512 -c 2 -a 0 -i 23 -k AGT
h -t 15.397733639 -s 0 -d -1 -p cbr -e 512 -c 2 -a 0 -i 23 -k AGT
+ -t 15.397733639 -s 0 -d 25 -p cbr -e 532 -c 2 -a 0 -i 23 -k RTR 
- -t 15.397733639 -s 0 -d 25 -p cbr -e 532 -c 2 -a 0 -i 23 -k RTR
h -t 15.397733639 -s 0 -d 25 -p cbr -e 532 -c 2 -a 0 -i 23 -k RTR
+ -t 15.403243875 -s 25 -d 12 -p cbr -e 532 -c 2 -a 0 -i 23 -k RTR 
- -t 15.403243875 -s 25 -d 12 -p cbr -e 532 -c 2 -a 0 -i 23 -k RTR
h -t 15.403243875 -s 25 -d 12 -p cbr -e 532 -c 2 -a 0 -i 23 -k RTR
+ -t 15.409058111 -s 12 -d 16 -p cbr -e 532 -c 2 -a 0 -i 23 -k RTR 
- -t 15.409058111 -s 12 -d 16 -p cbr -e 532 -c 2 -a 0 -i 23 -k RTR
h -t 15.409058111 -s 12 -d 16 -p cbr -e 532 -c 2 -a 0 -i 23 -k RTR
r -t 15.414872347 -s 16 -d 16 -p cbr -e 512 -c 2 -a 0 -i 23 -k AGT
+ -t 15.448342416 -s 0 -d -1 -p cbr -e 512 -c 2 -a 0 -i 24 -k AGT 
- -t 15.448342416 -s 0 -d -1 -p cbr -e 512 -c 2 -a 0 -i 24 -k AGT
h -t 15.448342416 -s 0 -d -1 -p cbr -e 512 -c 2 -a 0 -i 24 -k AGT
+ -t 15.448342416 -s 0 -d 25 -p cbr -e 532 -c 2 -a 0 -i 24 -k RTR 
- -t 15.448342416 -s 0 -d 25 -p cbr -e 532 -c 2 -a 0 -i 24 -k RTR
h -t 15.448342416 -s 0 -d 25 -p cbr -e 532 -c 2 -a 0 -i 24 -k RTR
+ -t 15.453792652 -s 25 -d 12 -p cbr -e 532 -c 2 -a 0 -i 24 -k RTR 
- -t 15.453792652 -s 25 -d 12 -p cbr -e 532 -c 2 -a 0 -i 24 -k RTR
h -t 15.453792652 -s 25 -d 12 -p cbr -e 532 -c 2 -a 0 -i 24 -k RTR
+ -t 15.459986888 -s 12 -d 16 -p cbr -e 532 -c 2 -a 0 -i 24 -k RTR 
- -t 15.459986888 -s 12 -d 16 -p cbr -e 532 -c 2 -a 0 -i 24 -k RTR
h -t 15.459986888 -s 12 -d 16 -p cbr -e 532 -c 2 -a 0 -i 24 -k RTR
r -t 15.465881124 -s 16 -d 16 -p cbr -e 512 -c 2 -a 0 -i 24 -k AGT
+ -t 15.505544590 -s 0 -d -1 -p cbr -e 512 -c 2 -a 0 -i 25 -k AGT 
- -t 15.505544590 -s 0 -d -1 -p cbr -e 512 -c 2 -a 0 -i 25 -k AGT
h -t 15.505544590 -s 0 -d -1 -p cbr -e 512 -c 2 -a 0 -i 25 -k AGT
+ -t 15.505544590 -s 0 -d 25 -p cbr -e 532 -c 2 -a 0 -i 25 -k RTR 
- -t 15.505544590 -s 0 -d 25 -p cbr -e 532 -c 2 -a 0 -i 25 -k RTR
h -t 15.505544590 -s 0 -d 25 -p cbr -e 532 -c 2 -a 0 -i 25 -k RTR
+ -t 15.511394826 -s 25 -d 12 -p cbr -e 532 -c 2 -a 0 -i 25 -k RTR 
- -t 15.511394826 -s 25 -d 12 -p cbr -e 532 -c 2 -a 0 -i 25 -k RTR
h -t 15.511394826 -s 25 -d 12 -p cbr -e 532 -c 2 -a 0 -i 25 -k RTR
+ -t 15.517689062 -s 12 -d 16 -p cbr -e 532 -c 2 -a 0 -i 25 -k RTR 
- -t 15.517689062 -s 12 -d 16 -p cbr -e 532 -c 2 -a 0 -i 25 -k RTR
h -t 15.517689062 -s 12 -d 16 -p cbr -e 532 -c 2 -a 0 -i 25 -k RTR
r -t 15.523463298 -s 16 -d 16 -p cbr -e 512 -c 2 -a 0 -i 25 -k AGT
+ -t 15.539066058 -s 0 -d -1 -p cbr -e 512 -c 2 -a 0 -i 26 -k AGT 
- -t 15.539066058 -s 0 -d -1 -p cbr -e 512 -c 2 -a 0 -i 26 -k AGT
h -t 15.539066058 -s 0 -d -1 -p cbr -e 512 -c 2 -a 0 -i 26 -k AGT
+ -t 15.539066058 -s 0 -d 25 -p cbr -e 532 -c 2 -a 0 -i 26 -k RTR 
- -t 15.539066058 -s 0 -d 25 -p cbr -e 532 -c 2 -a 0 -i 26 -k RTR
h -t 15.539066058 -s 0 -d 25 -p cbr -e 532 -c 2 -a 0 -i 26 -k RTR
+ -t 15.545016294 -s 25 -d 12 -p cbr -e 532 -c 2 -a 0 -i 26 -k RTR 
- -t 15.545016294 -s 25 -d 12 -p cbr -e 532 -c 2 -a 0 -i 26 -k RTR
h -t 15.545016294 -s 25 -d 12 -p cbr -e 532 -c 2 -a 0 -i 26 -k RTR
+ -t 15.550850530 -s 12 -d 16 -p cbr -e 532 -c 2 -a 0 -i 26 -k RTR 
- -t 15.550850530 -s 12 -d 16 -p cbr -e 532 -c 2 -a 0 -i 26 -k RTR
h -t 15.550850530 -s 12 -d 16 -p cbr -e 532 -c 2 -a 0 -i 26 -k RTR
r -t 15.556744767 -s 16 -d 16 -p cbr -e 512 -c 2 -a 0 -i 26 -k AGT
+ -t 15.611158906 -s 0 -d -1 -p cbr -e 512 -c 2 -a 0 -i 27 -k AGT 
- -t 15.611158906 -s 0 -d -1 -p cbr -e 512 -c 2 -a 0 -i 27 -k AGT
h -t 15.611158906 -s 0 -d -1 -p cbr -e 512 -c 2 -a 0 -i 27 -k AGT
+ -t 15.611158906 -s 0 -d 25 -p cbr -e 532 -c 2 -a 0 -i 27 -k RTR 
- -t 15.611158906 -s 0 -d 25 -p cbr -e 532 -c 2 -a 0 -i 27 -k RTR
h -t 15.611158906 -s 0 -d 25 -p cbr -e 532 -c 2 -a 0 -i 27 -k RTR
+ -t 15.617009142 -s 25 -d 12 -p cbr -e 532 -c 2 -a 0 -i 27 -k RTR 
- -t 15.617009142 -s 25 -d 12 -p cbr -e 532 -c 2 -a 0 -i 27 -k RTR
h -t 15.617009142 -s 25 -d 12 -p cbr -e 532 -c 2 -a 0 -i 27 -k RTR
+ -t 15.623223378 -s 12 -d 16 -p cbr -e 532 -c 2 -a 0 -i 27 -k RTR 
- -t 15.623223378 -s 12 -d 16 -p cbr -e 532 -c 2 -a 0 -i 27 -k RTR
h -t 15.623223378 -s 12 -d 16 -p cbr -e 532 -c 2 -a 0 -i 27 -k RTR
r -t 15.628997614 -s 16 -d 16 -p cbr -e 512 -c 2 -a 0 -i 27 -k AGT
+ -t 15.665584497 -s 0 -d -1 -p cbr -e 512 -c 2 -a 0 -i 28 -k AGT 
- -t 15.665584497 -s 0 -d -1 -p cbr -e 512 -c 2 -a 0 -i 28 -k AGT
h -t 15.665584497 -s 0 -d -1 -p cbr -e 512 -c 2 -a 0 -i 28 -k AGT
+ -t 15.665584497 -s 0 -d 25 -p cbr -e 532 -c 2 -a 0 -i 28 -k RTR 
- -t 15.665584497 -s 0 -d 25 -p cbr -e 532 -c 2 -a 0 -i 28 -k RTR
h -t 15.665584497 -s 0 -d 25 -p cbr -e 532 -c 2 -a 0 -i 28 -k RTR
+ -t 15.671174733 -s 25 -d 12 -p cbr -e 532 -c 2 -a 0 -i 28 -k RTR 
- -t 15.671174733 -s 25 -d 12 -p cbr -e 532 -c 2 -a 0 -i 28 -k RTR
h -t 15.671174733 -s 25 -d 12 -p cbr -e 532 -c 2 -a 0 -i 28 -k RTR
+ -t 15.677068969 -s 12 -d 16 -p cbr -e 532 -c 2 -a 0 -i 28 -k RTR 
- -t 15.677068969 -s 12 -d 16 -p cbr -e 532 -c 2 -a 0 -i 28 -k RTR
h -t 15.677068969 -s 12 -d 16 -p cbr -e 532 -c 2 -a 0 -i 28 -k RTR
r -t 15.683343205 -s 16 -d 16 -p cbr -e 512 -c 2 -a 0 -i 28 -k AGT
+ -t 15.706126319 -s 0 -d -1 -p cbr -e 512 -c 2 -a 0 -i 29 -k AGT 
- -t 15.706126319 -s 0 -d -1 -p cbr -e 512 -c 2 -a 0 -i 29 -k AGT
h -t 15.706126319 -s 0 -d -1 -p cbr -e 512 -c 2 -a 0 -i 29 -k AGT
+ -t 15.706126319 -s 0 -d 25 -p cbr -e 532 -c 2 -a 0 -i 29 -k RTR 
- -t 15.706126319 -s 0 -d 25 -p cbr -e 532 -c 2 -a 0 -i 29 -k RTR
h -t 15.706126319 -s 0 -d 25 -p cbr -e 532 -c 2 -a 0 -i 29 -k RTR
+ -t 15.712036555 -s 25 -d 12 -p cbr -e 532 -c 2 -a 0 -i 29 -k RTR 
- -t 15.712036555 -s 25 -d 12 -p cbr -e 532 -c 2 -a 0 -i 29 -k RTR
h -t 15.712036555 -s 25 -d 12 -p cbr -e 532 -c 2 -a 0 -i 29 -k RTR
+ -t 15.717930791 -s 12 -d 16 -p cbr -e 532 -c 2 -a 0 -i 29 -k RTR 
- -t 15.717930791 -s 12 -d 16 -p cbr -e 532 -c 2 -a 0 -i 29 -k RTR
h -t 15.717930791 -s 12 -d 16 -p cbr -e 532 -c 2 -a 0 -i 29 -k RTR
r -t 15.723925027 -s 16 -d 16 -p cbr -e 512 -c 2 -a 0 -i 29 -k AGT
+ -t 15.776422922 -s 0 -d -1 -p cbr -e 512 -c 2 -a 0 -i 30 -k AGT 
- -t 15.776422922 -s 0 -d -1 -p cbr -e 512 -c 2 -a 0 -i 30 -k AGT
h -t 15.776422922 -s 0 -d -1 -p cbr -e 512 -c 2 -a 0 -i 30 -k AGT
+ -t 15.776422922 -s 0 -d 25 -p cbr -e 532 -c 2 -a 0 -i 30 -k RTR 
- -t 15.776422922 -s 0 -d 25 -p cbr -e 532 -c 2 -a 0 -i 30 -k RTR
h -t 15.776422922 -s 0 -d 25 -p cbr -e 532 -c 2 -a 0 -i 30 -k RTR
+ -t 15.782113158 -s 25 -d 12 -p cbr -e 532 -c 2 -a 0 -i 30 -k RTR 
- -t 15.782113158 -s 25 -d 12 -p cbr -e 532 -c 2 -a 0 -i 30 -k RTR
h -t 15.782113158 -s 25 -d 12 -p cbr -e 532 -c 2 -a 0 -i 30 -k RTR
+ -t 15.788007394 -s 12 -d 16 -p cbr -e 532 -c 2 -a 0 -i 30 -k RTR 
- -t 15.788007394 -s 12 -d 16 -p cbr -e 532 -c 2 -a 0 -i 30 -k RTR
h -t 15.788007394 -s 12 -d 16 -p cbr -e 532 -c 2 -a 0 -i 30 -k RTR
r -t 15.794201630 -s 16 -d 16 -p cbr -e 512 -c 2 -a 0 -i 30 -k AGT
+ -t 15.803626750 -s 0 -d -1 -p cbr -e 512 -c 2 -a 0 -i 31 -k AGT 
- -t 15.803626750 -s 0 -d -1 -p cbr -e 512 -c 2 -a 0 -i 31 -k AGT
h -t 15.803626750 -s 0 -d -1 -p cbr -e 512 -c 2 -a 0 -i 31 -k AGT
+ -t 15.803626750 -s 0 -d 25 -p cbr -e 532 -c 2 -a 0 -i 31 -k RTR 
- -t 15.803626750 -s 0 -d 25 -p cbr -e 532 -c 2 -a 0 -i 31 -k RTR
h -t 15.803626750 -s 0 -d 25 -p cbr -e 532 -c 2 -a 0 -i 31 -k RTR
+ -t 15.809436986 -s 25 -d 12 -p cbr -e 532 -c 2 -a 0 -i 31 -k RTR 
- -t 15.809436986 -s 25 -d 12 -p cbr -e 532 -c 2 -a 0 -i 31 -k RTR
h -t 15.809436986 -s 25 -d 12 -p cbr -e 532 -c 2 -a 0 -i 31 -k RTR
+ -t 15.815331222 -s 12 -d 16 -p cbr -e 532 -c 2 -a 0 -i 31 -k RTR 
- -t 15.815331222 -s 12 -d 16 -p cbr -e 532 -c 2 -a 0 -i 31 -k RTR