n -t * -s 0  -x 100 -y 100 -Z 0 -z 30  -v circle -c black
n -t * -s 1  -x 300 -y 100 -Z 0 -z 30  -v circle -c black
n -t * -s 2  -x 500 -y 100 -Z 0 -z 30  -v circle -c black
n -t * -s 3  -x 100 -y 300 -Z 0 -z 30  -v circle -c black
n -t * -s 4  -x 300 -y 300 -Z 0 -z 30  -v circle -c black
n -t * -s 5  -x 500 -y 300 -Z 0 -z 30  -v circle -c black
n -t * -s 6  -x 100 -y 500 -Z 0 -z 30  -v circle -c black
n -t * -s 7  -x 300 -y 500 -Z 0 -z 30  -v circle -c black
n -t * -s 8  -x 500 -y 500 -Z 0 -z 30  -v circle -c black
V -t * -v 1.0a5 -a 0
W -t * -x 500 -y 500
A -t * -n 1 -p 0 -o 0xffffffff -c 31 -a 1
A -t * -h 1 -m 2147483647 -s 0
+ -t 0.000000000 -s 0 -d -1 -p AODV -e 44 -c 2 -a 0 -i 0 -k RTR 
- -t 0.000000000 -s 0 -d -1 -p AODV -e 44 -c 2 -a 0 -i 0 -k RTR
h -t 0.000000000 -s 0 -d -1 -p AODV -e 44 -c 2 -a 0 -i 0 -k RTR
+ -t 0.000000000 -s 1 -d -1 -p AODV -e 44 -c 2 -a 0 -i 0 -k RTR 
- -t 0.000000000 -s 1 -d -1 -p AODV -e 44 -c 2 -a 0 -i 0 -k RTR
h -t 0.000000000 -s 1 -d -1 -p AODV -e 44 -c 2 -a 0 -i 0 -k RTR
+ -t 0.000000000 -s 2 -d -1 -p AODV -e 44 -c 2 -a 0 -i 0 -k RTR 
- -t 0.000000000 -s 2 -d -1 -p AODV -e 44 -c 2 -a 0 -i 0 -k RTR
h -t 0.000000000 -s 2 -d -1 -p AODV -e 44 -c 2 -a 0 -i 0 -k RTR
+ -t 0.000000000 -s 3 -d -1 -p AODV -e 44 -c 2 -a 0 -i 0 -k RTR 
- -t 0.000000000 -s 3 -d -1 -p AODV -e 44 -c 2 -a 0 -i 0 -k RTR
h -t 0.000000000 -s 3 -d -1 -p AODV -e 44 -c 2 -a 0 -i 0 -k RTR
+ -t 0.000000000 -s 4 -d -1 -p AODV -e 44 -c 2 -a 0 -i 0 -k RTR 
- -t 0.000000000 -s 4 -d -1 -p AODV -e 44 -c 2 -a 0 -i 0 -k RTR
h -t 0.000000000 -s 4 -d -1 -p AODV -e 44 -c 2 -a 0 -i 0 -k RTR
+ -t 0.000000000 -s 5 -d -1 -p AODV -e 44 -c 2 -a 0 -i 0 -k RTR 
- -t 0.000000000 -s 5 -d -1 -p AODV -e 44 -c 2 -a 0 -i 0 -k RTR
h -t 0.000000000 -s 5 -d -1 -p AODV -e 44 -c 2 -a 0 -i 0 -k RTR
+ -t 0.000000000 -s 6 -d -1 -p AODV -e 44 -c 2 -a 0 -i 0 -k RTR 
- -t 0.000000000 -s 6 -d -1 -p AODV -e 44 -c 2 -a 0 -i 0 -k RTR
h -t 0.000000000 -s 6 -d -1 -p AODV -e 44 -c 2 -a 0 -i 0 -k RTR
+ -t 0.000000000 -s 7 -d -1 -p AODV -e 44 -c 2 -a 0 -i 0 -k RTR 
- -t 0.000000000 -s 7 -d -1 -p AODV -e 44 -c 2 -a 0 -i 0 -k RTR
h -t 0.000000000 -s 7 -d -1 -p AODV -e 44 -c 2 -a 0 -i 0 -k RTR
+ -t 0.000000000 -s 8 -d -1 -p AODV -e 44 -c 2 -a 0 -i 0 -k RTR 
- -t 0.000000000 -s 8 -d -1 -p AODV -e 44 -c 2 -a 0 -i 0 -k RTR
h -t 0.000000000 -s 8 -d -1 -p AODV -e 44 -c 2 -a 0 -i 0 -k RTR
r -t 0.000908667 -s 0 -d -1 -p AODV -e 44 -c 2 -a 0 -i 0 -k RTR
r -t 0.000908667 -s 6 -d -1 -p AODV -e 44 -c 2 -a 0 -i 0 -k RTR
r -t 0.000908667 -s 4 -d -1 -p AODV -e 44 -c 2 -a 0 -i 0 -k RTR
+ -t 0.000908667 -s 0 -d 3 -p AODV -e 26 -c 2 -a 0 -i 0 -k RTR 
- -t 0.000908667 -s 0 -d 3 -p AODV -e 26 -c 2 -a 0 -i 0 -k RTR
h -t 0.000908667 -s 0 -d 3 -p AODV -e 26 -c 2 -a 0 -i 0 -k RTR
+ -t 0.000908667 -s 6 -d 3 -p AODV -e 26 -c 2 -a 0 -i 0 -k RTR 
- -t 0.000908667 -s 6 -d 3 -p AODV -e 26 -c 2 -a 0 -i 0 -k RTR
h -t 0.000908667 -s 6 -d 3 -p AODV -e 26 -c 2 -a 0 -i 0 -k RTR
+ -t 0.000908667 -s 4 -d 3 -p AODV -e 26 -c 2 -a 0 -i 0 -k RTR 
- -t 0.000908667 -s 4 -d 3 -p AODV -e 26 -c 2 -a 0 -i 0 -k RTR
h -t 0.000908667 -s 4 -d 3 -p AODV -e 26 -c 2 -a 0 -i 0 -k RTR
r -t 0.002047333 -s 1 -d -1 -p AODV -e 44 -c 2 -a 0 -i 0 -k RTR
r -t 0.002047333 -s 7 -d -1 -p AODV -e 44 -c 2 -a 0 -i 0 -k RTR
+ -t 0.002047333 -s 1 -d 0 -p AODV -e 26 -c 2 -a 0 -i 0 -k RTR 
- -t 0.002047333 -s 1 -d 0 -p AODV -e 26 -c 2 -a 0 -i 0 -k RTR
h -t 0.002047333 -s 1 -d 0 -p AODV -e 26 -c 2 -a 0 -i 0 -k RTR
+ -t 0.002047333 -s 7 -d 6 -p AODV -e 26 -c 2 -a 0 -i 0 -k RTR 
- -t 0.002047333 -s 7 -d 6 -p AODV -e 26 -c 2 -a 0 -i 0 -k RTR
h -t 0.002047333 -s 7 -d 6 -p AODV -e 26 -c 2 -a 0 -i 0 -k RTR
r -t 0.003350667 -s 5 -d -1 -p AODV -e 44 -c 2 -a 0 -i 0 -k RTR
+ -t 0.003350667 -s 5 -d 8 -p AODV -e 26 -c 2 -a 0 -i 0 -k RTR 
- -t 0.003350667 -s 5 -d 8 -p AODV -e 26 -c 2 -a 0 -i 0 -k RTR
h -t 0.003350667 -s 5 -d 8 -p AODV -e 26 -c 2 -a 0 -i 0 -k RTR
r -t 0.003350824 -s 2 -d -1 -p AODV -e 44 -c 2 -a 0 -i 0 -k RTR
r -t 0.003350824 -s 8 -d -1 -p AODV -e 44 -c 2 -a 0 -i 0 -k RTR
+ -t 0.003350824 -s 2 -d 5 -p AODV -e 26 -c 2 -a 0 -i 0 -k RTR 
- -t 0.003350824 -s 2 -d 5 -p AODV -e 26 -c 2 -a 0 -i 0 -k RTR
h -t 0.003350824 -s 2 -d 5 -p AODV -e 26 -c 2 -a 0 -i 0 -k RTR
+ -t 0.003350824 -s 8 -d 5 -p AODV -e 26 -c 2 -a 0 -i 0 -k RTR 
- -t 0.003350824 -s 8 -d 5 -p AODV -e 26 -c 2 -a 0 -i 0 -k RTR
h -t 0.003350824 -s 8 -d 5 -p AODV -e 26 -c 2 -a 0 -i 0 -k RTR
r -t 0.008075415 -s 4 -d -1 -p AODV -e 44 -c 2 -a 0 -i 0 -k RTR
r -t 0.008075415 -s 6 -d -1 -p AODV -e 44 -c 2 -a 0 -i 0 -k RTR
r -t 0.008075415 -s 8 -d -1 -p AODV -e 44 -c 2 -a 0 -i 0 -k RTR
+ -t 0.008075415 -s 4 -d 7 -p AODV -e 26 -c 2 -a 0 -i 0 -k RTR 
- -t 0.008075415 -s 4 -d 7 -p AODV -e 26 -c 2 -a 0 -i 0 -k RTR
h -t 0.008075415 -s 4 -d 7 -p AODV -e 26 -c 2 -a 0 -i 0 -k RTR
+ -t 0.008075415 -s 6 -d 7 -p AODV -e 26 -c 2 -a 0 -i 0 -k RTR 
- -t 0.008075415 -s 6 -d 7 -p AODV -e 26 -c 2 -a 0 -i 0 -k RTR
h -t 0.008075415 -s 6 -d 7 -p AODV -e 26 -c 2 -a 0 -i 0 -k RTR
+ -t 0.008075415 -s 8 -d 7 -p AODV -e 26 -c 2 -a 0 -i 0 -k RTR 
- -t 0.008075415 -s 8 -d 7 -p AODV -e 26 -c 2 -a 0 -i 0 -k RTR
h -t 0.008075415 -s 8 -d 7 -p AODV -e 26 -c 2 -a 0 -i 0 -k RTR
r -t 0.008954082 -s 1 -d -1 -p AODV -e 44 -c 2 -a 0 -i 0 -k RTR
r -t 0.008954082 -s 3 -d -1 -p AODV -e 44 -c 2 -a 0 -i 0 -k RTR
r -t 0.008954082 -s 7 -d -1 -p AODV -e 44 -c 2 -a 0 -i 0 -k RTR
r -t 0.008954082 -s 5 -d -1 -p AODV -e 44 -c 2 -a 0 -i 0 -k RTR
+ -t 0.008954082 -s 1 -d 4 -p AODV -e 26 -c 2 -a 0 -i 0 -k RTR 
- -t 0.008954082 -s 1 -d 4 -p AODV -e 26 -c 2 -a 0 -i 0 -k RTR
h -t 0.008954082 -s 1 -d 4 -p AODV -e 26 -c 2 -a 0 -i 0 -k RTR
+ -t 0.008954082 -s 3 -d 4 -p AODV -e 26 -c 2 -a 0 -i 0 -k RTR 
- -t 0.008954082 -s 3 -d 4 -p AODV -e 26 -c 2 -a 0 -i 0 -k RTR
h -t 0.008954082 -s 3 -d 4 -p AODV -e 26 -c 2 -a 0 -i 0 -k RTR
+ -t 0.008954082 -s 7 -d 4 -p AODV -e 26 -c 2 -a 0 -i 0 -k RTR 
- -t 0.008954082 -s 7 -d 4 -p AODV -e 26 -c 2 -a 0 -i 0 -k RTR
h -t 0.008954082 -s 7 -d 4 -p AODV -e 26 -c 2 -a 0 -i 0 -k RTR
+ -t 0.008954082 -s 5 -d 4 -p AODV -e 26 -c 2 -a 0 -i 0 -k RTR 
- -t 0.008954082 -s 5 -d 4 -p AODV -e 26 -c 2 -a 0 -i 0 -k RTR
h -t 0.008954082 -s 5 -d 4 -p AODV -e 26 -c 2 -a 0 -i 0 -k RTR
r -t 0.011589024 -s 0 -d -1 -p AODV -e 44 -c 2 -a 0 -i 0 -k RTR
r -t 0.011589024 -s 4 -d -1 -p AODV -e 44 -c 2 -a 0 -i 0 -k RTR
r -t 0.011589024 -s 2 -d -1 -p AODV -e 44 -c 2 -a 0 -i 0 -k RTR
+ -t 0.011589024 -s 0 -d 1 -p AODV -e 26 -c 2 -a 0 -i 0 -k RTR 
- -t 0.011589024 -s 0 -d 1 -p AODV -e 26 -c 2 -a 0 -i 0 -k RTR
h -t 0.011589024 -s 0 -d 1 -p AODV -e 26 -c 2 -a 0 -i 0 -k RTR
+ -t 0.011589024 -s 4 -d 1 -p AODV -e 26 -c 2 -a 0 -i 0 -k RTR 
- -t 0.011589024 -s 4 -d 1 -p AODV -e 26 -c 2 -a 0 -i 0 -k RTR
h -t 0.011589024 -s 4 -d 1 -p AODV -e 26 -c 2 -a 0 -i 0 -k RTR
+ -t 0.011589024 -s 2 -d 1 -p AODV -e 26 -c 2 -a 0 -i 0 -k RTR 
- -t 0.011589024 -s 2 -d 1 -p AODV -e 26 -c 2 -a 0 -i 0 -k RTR
h -t 0.011589024 -s 2 -d 1 -p AODV -e 26 -c 2 -a 0 -i 0 -k RTR
r -t 0.012487691 -s 1 -d -1 -p AODV -e 44 -c 2 -a 0 -i 0 -k RTR
r -t 0.012487691 -s 5 -d -1 -p AODV -e 44 -c 2 -a 0 -i 0 -k RTR
+ -t 0.012487691 -s 1 -d 2 -p AODV -e 26 -c 2 -a 0 -i 0 -k RTR 
- -t 0.012487691 -s 1 -d 2 -p AODV -e 26 -c 2 -a 0 -i 0 -k RTR
h -t 0.012487691 -s 1 -d 2 -p AODV -e 26 -c 2 -a 0 -i 0 -k RTR
+ -t 0.012487691 -s 5 -d 2 -p AODV -e 26 -c 2 -a 0 -i 0 -k RTR 
- -t 0.012487691 -s 5 -d 2 -p AODV -e 26 -c 2 -a 0 -i 0 -k RTR
h -t 0.012487691 -s 5 -d 2 -p AODV -e 26 -c 2 -a 0 -i 0 -k RTR
+ -t 0.750169789 -s 0 -d -1 -p AODV -e 44 -c 2 -a 0 -i 0 -k RTR 
- -t 0.750169789 -s 0 -d -1 -p AODV -e 44 -c 2 -a 0 -i 0 -k RTR
h -t 0.750169789 -s 0 -d -1 -p AODV -e 44 -c 2 -a 0 -i 0 -k RTR
r -t 0.751258455 -s 3 -d -1 -p AODV -e 44 -c 2 -a 0 -i 0 -k RTR
r -t 0.751258455 -s 1 -d -1 -p AODV -e 44 -c 2 -a 0 -i 0 -k RTR
+ -t 0.751258455 -s 3 -d 0 -p AODV -e 26 -c 2 -a 0 -i 0 -k RTR 
- -t 0.751258455 -s 3 -d 0 -p AODV -e 26 -c 2 -a 0 -i 0 -k RTR
h -t 0.751258455 -s 3 -d 0 -p AODV -e 26 -c 2 -a 0 -i 0 -k RTR
+ -t 0.751258455 -s 1 -d 0 -p AODV -e 26 -c 2 -a 0 -i 0 -k RTR 
- -t 0.751258455 -s 1 -d 0 -p AODV -e 26 -c 2 -a 0 -i 0 -k RTR
h -t 0.751258455 -s 1 -d 0 -p AODV -e 26 -c 2 -a 0 -i 0 -k RTR
+ -t 0.757102330 -s 2 -d -1 -p AODV -e 44 -c 2 -a 0 -i 0 -k RTR 
- -t 0.757102330 -s 2 -d -1 -p AODV -e 44 -c 2 -a 0 -i 0 -k RTR
h -t 0.757102330 -s 2 -d -1 -p AODV -e 44 -c 2 -a 0 -i 0 -k RTR
r -t 0.758210997 -s 1 -d -1 -p AODV -e 44 -c 2 -a 0 -i 0 -k RTR
r -t 0.758210997 -s 5 -d -1 -p AODV -e 44 -c 2 -a 0 -i 0 -k RTR
+ -t 0.758210997 -s 1 -d 2 -p AODV -e 26 -c 2 -a 0 -i 0 -k RTR 
- -t 0.758210997 -s 1 -d 2 -p AODV -e 26 -c 2 -a 0 -i 0 -k RTR
h -t 0.758210997 -s 1 -d 2 -p AODV -e 26 -c 2 -a 0 -i 0 -k RTR
+ -t 0.758210997 -s 5 -d 2 -p AODV -e 26 -c 2 -a 0 -i 0 -k RTR 
- -t 0.758210997 -s 5 -d 2 -p AODV -e 26 -c 2 -a 0 -i 0 -k RTR
h -t 0.758210997 -s 5 -d 2 -p AODV -e 26 -c 2 -a 0 -i 0 -k RTR
+ -t 0.794061336 -s 3 -d -1 -p AODV -e 44 -c 2 -a 0 -i 0 -k RTR 
- -t 0.794061336 -s 3 -d -1 -p AODV -e 44 -c 2 -a 0 -i 0 -k RTR
h -t 0.794061336 -s 3 -d -1 -p AODV -e 44 -c 2 -a 0 -i 0 -k RTR
r -t 0.795230002 -s 0 -d -1 -p AODV -e 44 -c 2 -a 0 -i 0 -k RTR
r -t 0.795230002 -s 6 -d -1 -p AODV -e 44 -c 2 -a 0 -i 0 -k RTR
r -t 0.795230002 -s 4 -d -1 -p AODV -e 44 -c 2 -a 0 -i 0 -k RTR
+ -t 0.795230002 -s 0 -d 3 -p AODV -e 26 -c 2 -a 0 -i 0 -k RTR 
- -t 0.795230002 -s 0 -d 3 -p AODV -e 26 -c 2 -a 0 -i 0 -k RTR
h -t 0.795230002 -s 0 -d 3 -p AODV -e 26 -c 2 -a 0 -i 0 -k RTR
+ -t 0.795230002 -s 6 -d 3 -p AODV -e 26 -c 2 -a 0 -i 0 -k RTR 
- -t 0.795230002 -s 6 -d 3 -p AODV -e 26 -c 2 -a 0 -i 0 -k RTR
h -t 0.795230002 -s 6 -d 3 -p AODV -e 26 -c 2 -a 0 -i 0 -k RTR
+ -t 0.795230002 -s 4 -d 3 -p AODV -e 26 -c 2 -a 0 -i 0 -k RTR 
- -t 0.795230002 -s 4 -d 3 -p AODV -e 26 -c 2 -a 0 -i 0 -k RTR
h -t 0.795230002 -s 4 -d 3 -p AODV -e 26 -c 2 -a 0 -i 0 -k RTR
+ -t 0.867300876 -s 8 -d -1 -p AODV -e 44 -c 2 -a 0 -i 0 -k RTR 
- -t 0.867300876 -s 8 -d -1 -p AODV -e 44 -c 2 -a 0 -i 0 -k RTR
h -t 0.867300876 -s 8 -d -1 -p AODV -e 44 -c 2 -a 0 -i 0 -k RTR
r -t 0.868229543 -s 5 -d -1 -p AODV -e 44 -c 2 -a 0 -i 0 -k RTR
r -t 0.868229543 -s 7 -d -1 -p AODV -e 44 -c 2 -a 0 -i 0 -k RTR
+ -t 0.868229543 -s 5 -d 8 -p AODV -e 26 -c 2 -a 0 -i 0 -k RTR 
- -t 0.868229543 -s 5 -d 8 -p AODV -e 26 -c 2 -a 0 -i 0 -k RTR
h -t 0.868229543 -s 5 -d 8 -p AODV -e 26 -c 2 -a 0 -i 0 -k RTR
+ -t 0.868229543 -s 7 -d 8 -p AODV -e 26 -c 2 -a 0 -i 0 -k RTR 
- -t 0.868229543 -s 7 -d 8 -p AODV -e 26 -c 2 -a 0 -i 0 -k RTR
h -t 0.868229543 -s 7 -d 8 -p AODV -e 26 -c 2 -a 0 -i 0 -k RTR
+ -t 0.906480886 -s 6 -d -1 -p AODV -e 44 -c 2 -a 0 -i 0 -k RTR 
- -t 0.906480886 -s 6 -d -1 -p AODV -e 44 -c 2 -a 0 -i 0 -k RTR
h -t 0.906480886 -s 6 -d -1 -p AODV -e 44 -c 2 -a 0 -i 0 -k RTR
r -t 0.907949552 -s 3 -d -1 -p AODV -e 44 -c 2 -a 0 -i 0 -k RTR
r -t 0.907949552 -s 7 -d -1 -p AODV -e 44 -c 2 -a 0 -i 0 -k RTR
+ -t 0.907949552 -s 3 -d 6 -p AODV -e 26 -c 2 -a 0 -i 0 -k RTR 
- -t 0.907949552 -s 3 -d 6 -p AODV -e 26 -c 2 -a 0 -i 0 -k RTR
h -t 0.907949552 -s 3 -d 6 -p AODV -e 26 -c 2 -a 0 -i 0 -k RTR
+ -t 0.907949552 -s 7 -d 6 -p AODV -e 26 -c 2 -a 0 -i 0 -k RTR 
- -t 0.907949552 -s 7 -d 6 -p AODV -e 26 -c 2 -a 0 -i 0 -k RTR
h -t 0.907949552 -s 7 -d 6 -p AODV -e 26 -c 2 -a 0 -i 0 -k RTR
+ -t 0.970586691 -s 4 -d -1 -p AODV -e 44 -c 2 -a 0 -i 0 -k RTR 
- -t 0.970586691 -s 4 -d -1 -p AODV -e 44 -c 2 -a 0 -i 0 -k RTR
h -t 0.970586691 -s 4 -d -1 -p AODV -e 44 -c 2 -a 0 -i 0 -k RTR
r -t 0.971495358 -s 1 -d -1 -p AODV -e 44 -c 2 -a 0 -i 0 -k RTR
r -t 0.971495358 -s 3 -d -1 -p AODV -e 44 -c 2 -a 0 -i 0 -k RTR
r -t 0.971495358 -s 7 -d -1 -p AODV -e 44 -c 2 -a 0 -i 0 -k RTR
r -t 0.971495358 -s 5 -d -1 -p AODV -e 44 -c 2 -a 0 -i 0 -k RTR
+ -t 0.971495358 -s 1 -d 4 -p AODV -e 26 -c 2 -a 0 -i 0 -k RTR 
- -t 0.971495358 -s 1 -d 4 -p AODV -e 26 -c 2 -a 0 -i 0 -k RTR
h -t 0.971495358 -s 1 -d 4 -p AODV -e 26 -c 2 -a 0 -i 0 -k RTR
+ -t 0.971495358 -s 3 -d 4 -p AODV -e 26 -c 2 -a 0 -i 0 -k RTR 
- -t 0.971495358 -s 3 -d 4 -p AODV -e 26 -c 2 -a 0 -i 0 -k RTR
h -t 0.971495358 -s 3 -d 4 -p AODV -e 26 -c 2 -a 0 -i 0 -k RTR
+ -t 0.971495358 -s 7 -d 4 -p AODV -e 26 -c 2 -a 0 -i 0 -k RTR 
- -t 0.971495358 -s 7 -d 4 -p AODV -e 26 -c 2 -a 0 -i 0 -k RTR
h -t 0.971495358 -s 7 -d 4 -p AODV -e 26 -c 2 -a 0 -i 0 -k RTR
+ -t 0.971495358 -s 5 -d 4 -p AODV -e 26 -c 2 -a 0 -i 0 -k RTR 
- -t 0.971495358 -s 5 -d 4 -p AODV -e 26 -c 2 -a 0 -i 0 -k RTR
h -t 0.971495358 -s 5 -d 4 -p AODV -e 26 -c 2 -a 0 -i 0 -k RTR
+ -t 1.027940358 -s 1 -d -1 -p AODV -e 44 -c 2 -a 0 -i 0 -k RTR 
- -t 1.027940358 -s 1 -d -1 -p AODV -e 44 -c 2 -a 0 -i 0 -k RTR
h -t 1.027940358 -s 1 -d -1 -p AODV -e 44 -c 2 -a 0 -i 0 -k RTR
r -t 1.028949025 -s 0 -d -1 -p AODV -e 44 -c 2 -a 0 -i 0 -k RTR
r -t 1.028949025 -s 4 -d -1 -p AODV -e 44 -c 2 -a 0 -i 0 -k RTR
r -t 1.028949025 -s 2 -d -1 -p AODV -e 44 -c 2 -a 0 -i 0 -k RTR
+ -t 1.028949025 -s 0 -d 1 -p AODV -e 26 -c 2 -a 0 -i 0 -k RTR 
- -t 1.028949025 -s 0 -d 1 -p AODV -e 26 -c 2 -a 0 -i 0 -k RTR
h -t 1.028949025 -s 0 -d 1 -p AODV -e 26 -c 2 -a 0 -i 0 -k RTR
+ -t 1.028949025 -s 4 -d 1 -p AODV -e 26 -c 2 -a 0 -i 0 -k RTR 
- -t 1.028949025 -s 4 -d 1 -p AODV -e 26 -c 2 -a 0 -i 0 -k RTR
h -t 1.028949025 -s 4 -d 1 -p AODV -e 26 -c 2 -a 0 -i 0 -k RTR
+ -t 1.028949025 -s 2 -d 1 -p AODV -e 26 -c 2 -a 0 -i 0 -k RTR 
- -t 1.028949025 -s 2 -d 1 -p AODV -e 26 -c 2 -a 0 -i 0 -k RTR
h -t 1.028949025 -s 2 -d 1 -p AODV -e 26 -c 2 -a 0 -i 0 -k RTR
+ -t 1.149577727 -s 5 -d -1 -p AODV -e 44 -c 2 -a 0 -i 0 -k RTR 
- -t 1.149577727 -s 5 -d -1 -p AODV -e 44 -c 2 -a 0 -i 0 -k RTR
h -t 1.149577727 -s 5 -d -1 -p AODV -e 44 -c 2 -a 0 -i 0 -k RTR
r -t 1.150546393 -s 2 -d -1 -p AODV -e 44 -c 2 -a 0 -i 0 -k RTR
r -t 1.150546393 -s 4 -d -1 -p AODV -e 44 -c 2 -a 0 -i 0 -k RTR
r -t 1.150546393 -s 8 -d -1 -p AODV -e 44 -c 2 -a 0 -i 0 -k RTR
+ -t 1.150546393 -s 2 -d 5 -p AODV -e 26 -c 2 -a 0 -i 0 -k RTR 
- -t 1.150546393 -s 2 -d 5 -p AODV -e 26 -c 2 -a 0 -i 0 -k RTR
h -t 1.150546393 -s 2 -d 5 -p AODV -e 26 -c 2 -a 0 -i 0 -k RTR
+ -t 1.150546393 -s 4 -d 5 -p AODV -e 26 -c 2 -a 0 -i 0 -k RTR 
- -t 1.150546393 -s 4 -d 5 -p AODV -e 26 -c 2 -a 0 -i 0 -k RTR
h -t 1.150546393 -s 4 -d 5 -p AODV -e 26 -c 2 -a 0 -i 0 -k RTR
+ -t 1.150546393 -s 8 -d 5 -p AODV -e 26 -c 2 -a 0 -i 0 -k RTR 
- -t 1.150546393 -s 8 -d 5 -p AODV -e 26 -c 2 -a 0 -i 0 -k RTR
h -t 1.150546393 -s 8 -d 5 -p AODV -e 26 -c 2 -a 0 -i 0 -k RTR
+ -t 1.158238026 -s 7 -d -1 -p AODV -e 44 -c 2 -a 0 -i 0 -k RTR 
- -t 1.158238026 -s 7 -d -1 -p AODV -e 44 -c 2 -a 0 -i 0 -k RTR
h -t 1.158238026 -s 7 -d -1 -p AODV -e 44 -c 2 -a 0 -i 0 -k RTR
r -t 1.159366692 -s 4 -d -1 -p AODV -e 44 -c 2 -a 0 -i 0 -k RTR
r -t 1.159366692 -s 6 -d -1 -p AODV -e 44 -c 2 -a 0 -i 0 -k RTR
r -t 1.159366692 -s 8 -d -1 -p AODV -e 44 -c 2 -a 0 -i 0 -k RTR
+ -t 1.159366692 -s 4 -d 7 -p AODV -e 26 -c 2 -a 0 -i 0 -k RTR 
- -t 1.159366692 -s 4 -d 7 -p AODV -e 26 -c 2 -a 0 -i 0 -k RTR
h -t 1.159366692 -s 4 -d 7 -p AODV -e 26 -c 2 -a 0 -i 0 -k RTR
+ -t 1.159366692 -s 6 -d 7 -p AODV -e 26 -c 2 -a 0 -i 0 -k RTR 
- -t 1.159366692 -s 6 -d 7 -p AODV -e 26 -c 2 -a 0 -i 0 -k RTR
h -t 1.159366692 -s 6 -d 7 -p AODV -e 26 -c 2 -a 0 -i 0 -k RTR
+ -t 1.159366692 -s 8 -d 7 -p AODV -e 26 -c 2 -a 0 -i 0 -k RTR 
- -t 1.159366692 -s 8 -d 7 -p AODV -e 26 -c 2 -a 0 -i 0 -k RTR
h -t 1.159366692 -s 8 -d 7 -p AODV -e 26 -c 2 -a 0 -i 0 -k RTR
+ -t 1.600209457 -s 2 -d -1 -p AODV -e 44 -c 2 -a 0 -i 0 -k RTR 
- -t 1.600209457 -s 2 -d -1 -p AODV -e 44 -c 2 -a 0 -i 0 -k RTR
h -t 1.600209457 -s 2 -d -1 -p AODV -e 44 -c 2 -a 0 -i 0 -k RTR
r -t 1.601618124 -s 1 -d -1 -p AODV -e 44 -c 2 -a 0 -i 0 -k RTR
r -t 1.601618124 -s 5 -d -1 -p AODV -e 44 -c 2 -a 0 -i 0 -k RTR
+ -t 1.601618124 -s 1 -d 2 -p AODV -e 26 -c 2 -a 0 -i 0 -k RTR 
- -t 1.601618124 -s 1 -d 2 -p AODV -e 26 -c 2 -a 0 -i 0 -k RTR
h -t 1.601618124 -s 1 -d 2 -p AODV -e 26 -c 2 -a 0 -i 0 -k RTR
+ -t 1.601618124 -s 5 -d 2 -p AODV -e 26 -c 2 -a 0 -i 0 -k RTR 
- -t 1.601618124 -s 5 -d 2 -p AODV -e 26 -c 2 -a 0 -i 0 -k RTR
h -t 1.601618124 -s 5 -d 2 -p AODV -e 26 -c 2 -a 0 -i 0 -k RTR
+ -t 1.772580772 -s 0 -d -1 -p AODV -e 44 -c 2 -a 0 -i 0 -k RTR 
- -t 1.772580772 -s 0 -d -1 -p AODV -e 44 -c 2 -a 0 -i 0 -k RTR
h -t 1.772580772 -s 0 -d -1 -p AODV -e 44 -c 2 -a 0 -i 0 -k RTR
r -t 1.773989439 -s 3 -d -1 -p AODV -e 44 -c 2 -a 0 -i 0 -k RTR
r -t 1.773989439 -s 1 -d -1 -p AODV -e 44 -c 2 -a 0 -i 0 -k RTR
+ -t 1.773989439 -s 3 -d 0 -p AODV -e 26 -c 2 -a 0 -i 0 -k RTR 
- -t 1.773989439 -s 3 -d 0 -p AODV -e 26 -c 2 -a 0 -i 0 -k RTR
h -t 1.773989439 -s 3 -d 0 -p AODV -e 26 -c 2 -a 0 -i 0 -k RTR
+ -t 1.773989439 -s 1 -d 0 -p AODV -e 26 -c 2 -a 0 -i 0 -k RTR 
- -t 1.773989439 -s 1 -d 0 -p AODV -e 26 -c 2 -a 0 -i 0 -k RTR
h -t 1.773989439 -s 1 -d 0 -p AODV -e 26 -c 2 -a 0 -i 0 -k RTR
+ -t 1.834510176 -s 6 -d -1 -p AODV -e 44 -c 2 -a 0 -i 0 -k RTR 
- -t 1.834510176 -s 6 -d -1 -p AODV -e 44 -c 2 -a 0 -i 0 -k RTR
h -t 1.834510176 -s 6 -d -1 -p AODV -e 44 -c 2 -a 0 -i 0 -k RTR
r -t 1.835478843 -s 3 -d -1 -p AODV -e 44 -c 2 -a 0 -i 0 -k RTR
r -t 1.835478843 -s 7 -d -1 -p AODV -e 44 -c 2 -a 0 -i 0 -k RTR
+ -t 1.835478843 -s 3 -d 6 -p AODV -e 26 -c 2 -a 0 -i 0 -k RTR 
- -t 1.835478843 -s 3 -d 6 -p AODV -e 26 -c 2 -a 0 -i 0 -k RTR
h -t 1.835478843 -s 3 -d 6 -p AODV -e 26 -c 2 -a 0 -i 0 -k RTR
+ -t 1.835478843 -s 7 -d 6 -p AODV -e 26 -c 2 -a 0 -i 0 -k RTR 
- -t 1.835478843 -s 7 -d 6 -p AODV -e 26 -c 2 -a 0 -i 0 -k RTR
h -t 1.835478843 -s 7 -d 6 -p AODV -e 26 -c 2 -a 0 -i 0 -k RTR
+ -t 1.938807765 -s 1 -d -1 -p AODV -e 44 -c 2 -a 0 -i 0 -k RTR 
- -t 1.938807765 -s 1 -d -1 -p AODV -e 44 -c 2 -a 0 -i 0 -k RTR
h -t 1.938807765 -s 1 -d -1 -p AODV -e 44 -c 2 -a 0 -i 0 -k RTR
r -t 1.939796431 -s 0 -d -1 -p AODV -e 44 -c 2 -a 0 -i 0 -k RTR
r -t 1.939796431 -s 4 -d -1 -p AODV -e 44 -c 2 -a 0 -i 0 -k RTR
r -t 1.939796431 -s 2 -d -1 -p AODV -e 44 -c 2 -a 0 -i 0 -k RTR
+ -t 1.939796431 -s 0 -d 1 -p AODV -e 26 -c 2 -a 0 -i 0 -k RTR 
- -t 1.939796431 -s 0 -d 1 -p AODV -e 26 -c 2 -a 0 -i 0 -k RTR
h -t 1.939796431 -s 0 -d 1 -p AODV -e 26 -c 2 -a 0 -i 0 -k RTR
+ -t 1.939796431 -s 4 -d 1 -p AODV -e 26 -c 2 -a 0 -i 0 -k RTR 
- -t 1.939796431 -s 4 -d 1 -p AODV -e 26 -c 2 -a 0 -i 0 -k RTR
h -t 1.939796431 -s 4 -d 1 -p AODV -e 26 -c 2 -a 0 -i 0 -k RTR
+ -t 1.939796431 -s 2 -d 1 -p AODV -e 26 -c 2 -a 0 -i 0 -k RTR 
- -t 1.939796431 -s 2 -d 1 -p AODV -e 26 -c 2 -a 0 -i 0 -k RTR
h -t 1.939796431 -s 2 -d 1 -p AODV -e 26 -c 2 -a 0 -i 0 -k RTR
+ -t 1.993648200 -s 4 -d -1 -p AODV -e 44 -c 2 -a 0 -i 0 -k RTR 
- -t 1.993648200 -s 4 -d -1 -p AODV -e 44 -c 2 -a 0 -i 0 -k RTR
h -t 1.993648200 -s 4 -d -1 -p AODV -e 44 -c 2 -a 0 -i 0 -k RTR
r -t 1.994996867 -s 1 -d -1 -p AODV -e 44 -c 2 -a 0 -i 0 -k RTR
r -t 1.994996867 -s 3 -d -1 -p AODV -e 44 -c 2 -a 0 -i 0 -k RTR
r -t 1.994996867 -s 7 -d -1 -p AODV -e 44 -c 2 -a 0 -i 0 -k RTR
r -t 1.994996867 -s 5 -d -1 -p AODV -e 44 -c 2 -a 0 -i 0 -k RTR
+ -t 1.994996867 -s 1 -d 4 -p AODV -e 26 -c 2 -a 0 -i 0 -k RTR 
- -t 1.994996867 -s 1 -d 4 -p AODV -e 26 -c 2 -a 0 -i 0 -k RTR
h -t 1.994996867 -s 1 -d 4 -p AODV -e 26 -c 2 -a 0 -i 0 -k RTR
+ -t 1.994996867 -s 3 -d 4 -p AODV -e 26 -c 2 -a 0 -i 0 -k RTR 
- -t 1.994996867 -s 3 -d 4 -p AODV -e 26 -c 2 -a 0 -i 0 -k RTR
h -t 1.994996867 -s 3 -d 4 -p AODV -e 26 -c 2 -a 0 -i 0 -k RTR
+ -t 1.994996867 -s 7 -d 4 -p AODV -e 26 -c 2 -a 0 -i 0 -k RTR 
- -t 1.994996867 -s 7 -d 4 -p AODV -e 26 -c 2 -a 0 -i 0 -k RTR
h -t 1.994996867 -s 7 -d 4 -p AODV -e 26 -c 2 -a 0 -i 0 -k RTR
+ -t 1.994996867 -s 5 -d 4 -p AODV -e 26 -c 2 -a 0 -i 0 -k RTR 
- -t 1.994996867 -s 5 -d 4 -p AODV -e 26 -c 2 -a 0 -i 0 -k RTR
h -t 1.994996867 -s 5 -d 4 -p AODV -e 26 -c 2 -a 0 -i 0 -k RTR
+ -t 2.015314040 -s 7 -d -1 -p AODV -e 44 -c 2 -a 0 -i 0 -k RTR 
- -t 2.015314040 -s 7 -d -1 -p AODV -e 44 -c 2 -a 0 -i 0 -k RTR
h -t 2.015314040 -s 7 -d -1 -p AODV -e 44 -c 2 -a 0 -i 0 -k RTR
r -t 2.016682707 -s 4 -d -1 -p AODV -e 44 -c 2 -a 0 -i 0 -k RTR
r -t 2.016682707 -s 6 -d -1 -p AODV -e 44 -c 2 -a 0 -i 0 -k RTR
r -t 2.016682707 -s 8 -d -1 -p AODV -e 44 -c 2 -a 0 -i 0 -k RTR
+ -t 2.016682707 -s 4 -d 7 -p AODV -e 26 -c 2 -a 0 -i 0 -k RTR 
- -t 2.016682707 -s 4 -d 7 -p AODV -e 26 -c 2 -a 0 -i 0 -k RTR
h -t 2.016682707 -s 4 -d 7 -p AODV -e 26 -c 2 -a 0 -i 0 -k RTR
+ -t 2.016682707 -s 6 -d 7 -p AODV -e 26 -c 2 -a 0 -i 0 -k RTR 
- -t 2.016682707 -s 6 -d 7 -p AODV -e 26 -c 2 -a 0 -i 0 -k RTR
h -t 2.016682707 -s 6 -d 7 -p AODV -e 26 -c 2 -a 0 -i 0 -k RTR
+ -t 2.016682707 -s 8 -d 7 -p AODV -e 26 -c 2 -a 0 -i 0 -k RTR 
- -t 2.016682707 -s 8 -d 7 -p AODV -e 26 -c 2 -a 0 -i 0 -k RTR
h -t 2.016682707 -s 8 -d 7 -p AODV -e 26 -c 2 -a 0 -i 0 -k RTR
+ -t 2.024500953 -s 8 -d -1 -p AODV -e 44 -c 2 -a 0 -i 0 -k RTR 
- -t 2.024500953 -s 8 -d -1 -p AODV -e 44 -c 2 -a 0 -i 0 -k RTR
h -t 2.024500953 -s 8 -d -1 -p AODV -e 44 -c 2 -a 0 -i 0 -k RTR
r -t 2.025769620 -s 5 -d -1 -p AODV -e 44 -c 2 -a 0 -i 0 -k RTR
r -t 2.025769620 -s 7 -d -1 -p AODV -e 44 -c 2 -a 0 -i 0 -k RTR
+ -t 2.025769620 -s 5 -d 8 -p AODV -e 26 -c 2 -a 0 -i 0 -k RTR 
- -t 2.025769620 -s 5 -d 8 -p AODV -e 26 -c 2 -a 0 -i 0 -k RTR
h -t 2.025769620 -s 5 -d 8 -p AODV -e 26 -c 2 -a 0 -i 0 -k RTR
+ -t 2.025769620 -s 7 -d 8 -p AODV -e 26 -c 2 -a 0 -i 0 -k RTR 
- -t 2.025769620 -s 7 -d 8 -p AODV -e 26 -c 2 -a 0 -i 0 -k RTR
h -t 2.025769620 -s 7 -d 8 -p AODV -e 26 -c 2 -a 0 -i 0 -k RTR
+ -t 2.032064686 -s 3 -d -1 -p AODV -e 44 -c 2 -a 0 -i 0 -k RTR 
- -t 2.032064686 -s 3 -d -1 -p AODV -e 44 -c 2 -a 0 -i 0 -k RTR
h -t 2.032064686 -s 3 -d -1 -p AODV -e 44 -c 2 -a 0 -i 0 -k RTR
r -t 2.033393352 -s 0 -d -1 -p AODV -e 44 -c 2 -a 0 -i 0 -k RTR
r -t 2.033393352 -s 6 -d -1 -p AODV -e 44 -c 2 -a 0 -i 0 -k RTR
r -t 2.033393352 -s 4 -d -1 -p AODV -e 44 -c 2 -a 0 -i 0 -k RTR
+ -t 2.033393352 -s 0 -d 3 -p AODV -e 26 -c 2 -a 0 -i 0 -k RTR 
- -t 2.033393352 -s 0 -d 3 -p AODV -e 26 -c 2 -a 0 -i 0 -k RTR
h -t 2.033393352 -s 0 -d 3 -p AODV -e 26 -c 2 -a 0 -i 0 -k RTR
+ -t 2.033393352 -s 6 -d 3 -p AODV -e 26 -c 2 -a 0 -i 0 -k RTR 
- -t 2.033393352 -s 6 -d 3 -p AODV -e 26 -c 2 -a 0 -i 0 -k RTR
h -t 2.033393352 -s 6 -d 3 -p AODV -e 26 -c 2 -a 0 -i 0 -k RTR
+ -t 2.033393352 -s 4 -d 3 -p AODV -e 26 -c 2 -a 0 -i 0 -k RTR 
- -t 2.033393352 -s 4 -d 3 -p AODV -e 26 -c 2 -a 0 -i 0 -k RTR
h -t 2.033393352 -s 4 -d 3 -p AODV -e 26 -c 2 -a 0 -i 0 -k RTR
+ -t 2.159951166 -s 5 -d -1 -p AODV -e 44 -c 2 -a 0 -i 0 -k RTR 
- -t 2.159951166 -s 5 -d -1 -p AODV -e 44 -c 2 -a 0 -i 0 -k RTR
h -t 2.159951166 -s 5 -d -1 -p AODV -e 44 -c 2 -a 0 -i 0 -k RTR
r -t 2.161279833 -s 2 -d -1 -p AODV -e 44 -c 2 -a 0 -i 0 -k RTR
r -t 2.161279833 -s 4 -d -1 -p AODV -e 44 -c 2 -a 0 -i 0 -k RTR
r -t 2.161279833 -s 8 -d -1 -p AODV -e 44 -c 2 -a 0 -i 0 -k RTR
+ -t 2.161279833 -s 2 -d 5 -p AODV -e 26 -c 2 -a 0 -i 0 -k RTR 
- -t 2.161279833 -s 2 -d 5 -p AODV -e 26 -c 2 -a 0 -i 0 -k RTR
h -t 2.161279833 -s 2 -d 5 -p AODV -e 26 -c 2 -a 0 -i 0 -k RTR
+ -t 2.161279833 -s 4 -d 5 -p AODV -e 26 -c 2 -a 0 -i 0 -k RTR 
- -t 2.161279833 -s 4 -d 5 -p AODV -e 26 -c 2 -a 0 -i 0 -k RTR
h -t 2.161279833 -s 4 -d 5 -p AODV -e 26 -c 2 -a 0 -i 0 -k RTR
+ -t 2.161279833 -s 8 -d 5 -p AODV -e 26 -c 2 -a 0 -i 0 -k RTR 
- -t 2.161279833 -s 8 -d 5 -p AODV -e 26 -c 2 -a 0 -i 0 -k RTR
h -t 2.161279833 -s 8 -d 5 -p AODV -e 26 -c 2 -a 0 -i 0 -k RTR
+ -t 2.429466316 -s 2 -d -1 -p AODV -e 44 -c 2 -a 0 -i 0 -k RTR 
- -t 2.429466316 -s 2 -d -1 -p AODV -e 44 -c 2 -a 0 -i 0 -k RTR
h -t 2.429466316 -s 2 -d -1 -p AODV -e 44 -c 2 -a 0 -i 0 -k RTR
r -t 2.430494982 -s 1 -d -1 -p AODV -e 44 -c 2 -a 0 -i 0 -k RTR
r -t 2.430494982 -s 5 -d -1 -p AODV -e 44 -c 2 -a 0 -i 0 -k RTR
+ -t 2.430494982 -s 1 -d 2 -p AODV -e 26 -c 2 -a 0 -i 0 -k RTR 
- -t 2.430494982 -s 1 -d 2 -p AODV -e 26 -c 2 -a 0 -i 0 -k RTR
h -t 2.430494982 -s 1 -d 2 -p AODV -e 26 -c 2 -a 0 -i 0 -k RTR
+ -t 2.430494982 -s 5 -d 2 -p AODV -e 26 -c 2 -a 0 -i 0 -k RTR 
- -t 2.430494982 -s 5 -d 2 -p AODV -e 26 -c 2 -a 0 -i 0 -k RTR
h -t 2.430494982 -s 5 -d 2 -p AODV -e 26 -c 2 -a 0 -i 0 -k RTR
+ -t 2.802174265 -s 8 -d -1 -p AODV -e 44 -c 2 -a 0 -i 0 -k RTR 
- -t 2.802174265 -s 8 -d -1 -p AODV -e 44 -c 2 -a 0 -i 0 -k RTR
h -t 2.802174265 -s 8 -d -1 -p AODV -e 44 -c 2 -a 0 -i 0 -k RTR
r -t 2.803302931 -s 5 -d -1 -p AODV -e 44 -c 2 -a 0 -i 0 -k RTR
r -t 2.803302931 -s 7 -d -1 -p AODV -e 44 -c 2 -a 0 -i 0 -k RTR
+ -t 2.803302931 -s 5 -d 8 -p AODV -e 26 -c 2 -a 0 -i 0 -k RTR 
- -t 2.803302931 -s 5 -d 8 -p AODV -e 26 -c 2 -a 0 -i 0 -k RTR
h -t 2.803302931 -s 5 -d 8 -p AODV -e 26 -c 2 -a 0 -i 0 -k RTR
+ -t 2.803302931 -s 7 -d 8 -p AODV -e 26 -c 2 -a 0 -i 0 -k RTR 
- -t 2.803302931 -s 7 -d 8 -p AODV -e 26 -c 2 -a 0 -i 0 -k RTR
h -t 2.803302931 -s 7 -d 8 -p AODV -e 26 -c 2 -a 0 -i 0 -k RTR
+ -t 2.805431722 -s 6 -d -1 -p AODV -e 44 -c 2 -a 0 -i 0 -k RTR 
- -t 2.805431722 -s 6 -d -1 -p AODV -e 44 -c 2 -a 0 -i 0 -k RTR
h -t 2.805431722 -s 6 -d -1 -p AODV -e 44 -c 2 -a 0 -i 0 -k RTR
r -t 2.808439208 -s 3 -d -1 -p AODV -e 44 -c 2 -a 0 -i 0 -k RTR
r -t 2.808439208 -s 7 -d -1 -p AODV -e 44 -c 2 -a 0 -i 0 -k RTR
+ -t 2.808439208 -s 3 -d 6 -p AODV -e 26 -c 2 -a 0 -i 0 -k RTR 
- -t 2.808439208 -s 3 -d 6 -p AODV -e 26 -c 2 -a 0 -i 0 -k RTR
h -t 2.808439208 -s 3 -d 6 -p AODV -e 26 -c 2 -a 0 -i 0 -k RTR
+ -t 2.808439208 -s 7 -d 6 -p AODV -e 26 -c 2 -a 0 -i 0 -k RTR 
- -t 2.808439208 -s 7 -d 6 -p AODV -e 26 -c 2 -a 0 -i 0 -k RTR
h -t 2.808439208 -s 7 -d 6 -p AODV -e 26 -c 2 -a 0 -i 0 -k RTR
+ -t 2.875684858 -s 0 -d -1 -p AODV -e 44 -c 2 -a 0 -i 0 -k RTR 
- -t 2.875684858 -s 0 -d -1 -p AODV -e 44 -c 2 -a 0 -i 0 -k RTR
h -t 2.875684858 -s 0 -d -1 -p AODV -e 44 -c 2 -a 0 -i 0 -k RTR
r -t 2.876573524 -s 3 -d -1 -p AODV -e 44 -c 2 -a 0 -i 0 -k RTR
r -t 2.876573524 -s 1 -d -1 -p AODV -e 44 -c 2 -a 0 -i 0 -k RTR
+ -t 2.876573524 -s 3 -d 0 -p AODV -e 26 -c 2 -a 0 -i 0 -k RTR 
- -t 2.876573524 -s 3 -d 0 -p AODV -e 26 -c 2 -a 0 -i 0 -k RTR
h -t 2.876573524 -s 3 -d 0 -p AODV -e 26 -c 2 -a 0 -i 0 -k RTR
+ -t 2.876573524 -s 1 -d 0 -p AODV -e 26 -c 2 -a 0 -i 0 -k RTR 
- -t 2.876573524 -s 1 -d 0 -p AODV -e 26 -c 2 -a 0 -i 0 -k RTR
h -t 2.876573524 -s 1 -d 0 -p AODV -e 26 -c 2 -a 0 -i 0 -k RTR
+ -t 2.905528294 -s 7 -d -1 -p AODV -e 44 -c 2 -a 0 -i 0 -k RTR 
- -t 2.905528294 -s 7 -d -1 -p AODV -e 44 -c 2 -a 0 -i 0 -k RTR
h -t 2.905528294 -s 7 -d -1 -p AODV -e 44 -c 2 -a 0 -i 0 -k RTR
r -t 2.906616961 -s 4 -d -1 -p AODV -e 44 -c 2 -a 0 -i 0 -k RTR
r -t 2.906616961 -s 6 -d -1 -p AODV -e 44 -c 2 -a 0 -i 0 -k RTR
r -t 2.906616961 -s 8 -d -1 -p AODV -e 44 -c 2 -a 0 -i 0 -k RTR
+ -t 2.906616961 -s 4 -d 7 -p AODV -e 26 -c 2 -a 0 -i 0 -k RTR 
- -t 2.906616961 -s 4 -d 7 -p AODV -e 26 -c 2 -a 0 -i 0 -k RTR
h -t 2.906616961 -s 4 -d 7 -p AODV -e 26 -c 2 -a 0 -i 0 -k RTR
+ -t 2.906616961 -s 6 -d 7 -p AODV -e 26 -c 2 -a 0 -i 0 -k RTR 
- -t 2.906616961 -s 6 -d 7 -p AODV -e 26 -c 2 -a 0 -i 0 -k RTR
h -t 2.906616961 -s 6 -d 7 -p AODV -e 26 -c 2 -a 0 -i 0 -k RTR
+ -t 2.906616961 -s 8 -d 7 -p AODV -e 26 -c 2 -a 0 -i 0 -k RTR 
- -t 2.906616961 -s 8 -d 7 -p AODV -e 26 -c 2 -a 0 -i 0 -k RTR
h -t 2.906616961 -s 8 -d 7 -p AODV -e 26 -c 2 -a 0 -i 0 -k RTR
+ -t 2.947987252 -s 5 -d -1 -p AODV -e 44 -c 2 -a 0 -i 0 -k RTR 
- -t 2.947987252 -s 5 -d -1 -p AODV -e 44 -c 2 -a 0 -i 0 -k RTR
h -t 2.947987252 -s 5 -d -1 -p AODV -e 44 -c 2 -a 0 -i 0 -k RTR
r -t 2.949455919 -s 2 -d -1 -p AODV -e 44 -c 2 -a 0 -i 0 -k RTR
r -t 2.949455919 -s 4 -d -1 -p AODV -e 44 -c 2 -a 0 -i 0 -k RTR
r -t 2.949455919 -s 8 -d -1 -p AODV -e 44 -c 2 -a 0 -i 0 -k RTR
+ -t 2.949455919 -s 2 -d 5 -p AODV -e 26 -c 2 -a 0 -i 0 -k RTR 
- -t 2.949455919 -s 2 -d 5 -p AODV -e 26 -c 2 -a 0 -i 0 -k RTR
h -t 2.949455919 -s 2 -d 5 -p AODV -e 26 -c 2 -a 0 -i 0 -k RTR
+ -t 2.949455919 -s 4 -d 5 -p AODV -e 26 -c 2 -a 0 -i 0 -k RTR 
- -t 2.949455919 -s 4 -d 5 -p AODV -e 26 -c 2 -a 0 -i 0 -k RTR
h -t 2.949455919 -s 4 -d 5 -p AODV -e 26 -c 2 -a 0 -i 0 -k RTR
+ -t 2.949455919 -s 8 -d 5 -p AODV -e 26 -c 2 -a 0 -i 0 -k RTR 
- -t 2.949455919 -s 8 -d 5 -p AODV -e 26 -c 2 -a 0 -i 0 -k RTR
h -t 2.949455919 -s 8 -d 5 -p AODV -e 26 -c 2 -a 0 -i 0 -k RTR
+ -t 2.983406285 -s 4 -d -1 -p AODV -e 44 -c 2 -a 0 -i 0 -k RTR 
- -t 2.983406285 -s 4 -d -1 -p AODV -e 44 -c 2 -a 0 -i 0 -k RTR
h -t 2.983406285 -s 4 -d -1 -p AODV -e 44 -c 2 -a 0 -i 0 -k RTR
r -t 2.984834952 -s 1 -d -1 -p AODV -e 44 -c 2 -a 0 -i 0 -k RTR
r -t 2.984834952 -s 3 -d -1 -p AODV -e 44 -c 2 -a 0 -i 0 -k RTR
r -t 2.984834952 -s 7 -d -1 -p AODV -e 44 -c 2 -a 0 -i 0 -k RTR
r -t 2.984834952 -s 5 -d -1 -p AODV -e 44 -c 2 -a 0 -i 0 -k RTR
+ -t 2.984834952 -s 1 -d 4 -p AODV -e 26 -c 2 -a 0 -i 0 -k RTR 
- -t 2.984834952 -s 1 -d 4 -p AODV -e 26 -c 2 -a 0 -i 0 -k RTR
h -t 2.984834952 -s 1 -d 4 -p AODV -e 26 -c 2 -a 0 -i 0 -k RTR
+ -t 2.984834952 -s 3 -d 4 -p AODV -e 26 -c 2 -a 0 -i 0 -k RTR 
- -t 2.984834952 -s 3 -d 4 -p AODV -e 26 -c 2 -a 0 -i 0 -k RTR
h -t 2.984834952 -s 3 -d 4 -p AODV -e 26 -c 2 -a 0 -i 0 -k RTR
+ -t 2.984834952 -s 7 -d 4 -p AODV -e 26 -c 2 -a 0 -i 0 -k RTR 
- -t 2.984834952 -s 7 -d 4 -p AODV -e 26 -c 2 -a 0 -i 0 -k RTR
h -t 2.984834952 -s 7 -d 4 -p AODV -e 26 -c 2 -a 0 -i 0 -k RTR
+ -t 2.984834952 -s 5 -d 4 -p AODV -e 26 -c 2 -a 0 -i 0 -k RTR 
- -t 2.984834952 -s 5 -d 4 -p AODV -e 26 -c 2 -a 0 -i 0 -k RTR
h -t 2.984834952 -s 5 -d 4 -p AODV -e 26 -c 2 -a 0 -i 0 -k RTR
+ -t 3.053800845 -s 3 -d -1 -p AODV -e 44 -c 2 -a 0 -i 0 -k RTR 
- -t 3.053800845 -s 3 -d -1 -p AODV -e 44 -c 2 -a 0 -i 0 -k RTR
h -t 3.053800845 -s 3 -d -1 -p AODV -e 44 -c 2 -a 0 -i 0 -k RTR
r -t 3.054809512 -s 0 -d -1 -p AODV -e 44 -c 2 -a 0 -i 0 -k RTR
r -t 3.054809512 -s 6 -d -1 -p AODV -e 44 -c 2 -a 0 -i 0 -k RTR
r -t 3.054809512 -s 4 -d -1 -p AODV -e 44 -c 2 -a 0 -i 0 -k RTR
+ -t 3.054809512 -s 0 -d 3 -p AODV -e 26 -c 2 -a 0 -i 0 -k RTR 
- -t 3.054809512 -s 0 -d 3 -p AODV -e 26 -c 2 -a 0 -i 0 -k RTR
h -t 3.054809512 -s 0 -d 3 -p AODV -e 26 -c 2 -a 0 -i 0 -k RTR
+ -t 3.054809512 -s 6 -d 3 -p AODV -e 26 -c 2 -a 0 -i 0 -k RTR 
- -t 3.054809512 -s 6 -d 3 -p AODV -e 26 -c 2 -a 0 -i 0 -k RTR
h -t 3.054809512 -s 6 -d 3 -p AODV -e 26 -c 2 -a 0 -i 0 -k RTR
+ -t 3.054809512 -s 4 -d 3 -p AODV -e 26 -c 2 -a 0 -i 0 -k RTR 
- -t 3.054809512 -s 4 -d 3 -p AODV -e 26 -c 2 -a 0 -i 0 -k RTR
h -t 3.054809512 -s 4 -d 3 -p AODV -e 26 -c 2 -a 0 -i 0 -k RTR