Sconfig 0.00000 tap: on snoop: rts? on errs? on
Sconfig 0.00000 salvage: on !bd replies? on
Sconfig 0.00000 grat error: on grat reply: on
Sconfig 0.00000 $reply for props: on ring 0 search: on
Sconfig 0.00000 using MOBICACHE
s 15.000000000 _0_ AGT  --- 0 cbr 512 [0 0 0 0] ------- [0:0 10:0 32 0] [0] 0 0
r 15.000000000 _0_ RTR  --- 0 cbr 512 [0 0 0 0] ------- [0:0 10:0 32 0] [0] 0 0
s 15.000000000 _1_ AGT  --- 2 cbr 512 [0 0 0 0] ------- [1:0 10:1 32 0] [0] 0 0
r 15.000000000 _1_ RTR  --- 2 cbr 512 [0 0 0 0] ------- [1:0 10:1 32 0] [0] 0 0
s 15.000000000 _5_ AGT  --- 4 cbr 512 [0 0 0 0] ------- [5:0 6:0 32 0] [0] 0 0
r 15.000000000 _5_ RTR  --- 4 cbr 512 [0 0 0 0] ------- [5:0 6:0 32 0] [0] 0 0
s 15.002575264 _5_ RTR  --- 5 DSR 32 [0 0 0 0] ------- [5:255 6:255 32 0] 1 [1 1] [0 1 0 0->0] [0 0 0 0->0]
r 15.003507597 _2_ RTR  --- 5 DSR 32 [0 ffffffff 5 800] ------- [5:255 6:255 32 0] 1 [1 1] [0 1 0 0->0] [0 0 0 0->0]
r 15.003507597 _8_ RTR  --- 5 DSR 32 [0 ffffffff 5 800] ------- [5:255 6:255 32 0] 1 [1 1] [0 1 0 0->0] [0 0 0 0->0]
r 15.003507931 _4_ RTR  --- 5 DSR 32 [0 ffffffff 5 800] ------- [5:255 6:255 32 0] 1 [1 1] [0 1 0 0->0] [0 0 0 0->0]
r 15.003507931 _12_ RTR  --- 5 DSR 32 [0 ffffffff 5 800] ------- [5:255 6:255 32 0] 1 [1 1] [0 1 0 0->0] [0 0 0 0->0]
r 15.003508009 _7_ RTR  --- 5 DSR 32 [0 ffffffff 5 800] ------- [5:255 6:255 32 0] 1 [1 1] [0 1 0 0->0] [0 0 0 0->0]
r 15.003508009 _1_ RTR  --- 5 DSR 32 [0 ffffffff 5 800] ------- [5:255 6:255 32 0] 1 [1 1] [0 1 0 0->0] [0 0 0 0->0]
s 15.008286208 _1_ RTR  --- 3 DSR 32 [0 0 0 0] ------- [1:255 10:255 32 0] 1 [1 1] [0 1 0 0->0] [0 0 0 0->0]
s 15.009164208 _0_ RTR  --- 1 DSR 32 [0 0 0 0] ------- [0:255 10:255 32 0] 1 [1 1] [0 1 0 0->0] [0 0 0 0->0]
r 15.009398541 _4_ RTR  --- 3 DSR 32 [0 ffffffff 1 800] ------- [1:255 10:255 32 0] 1 [1 1] [0 1 0 0->0] [0 0 0 0->0]
r 15.009398874 _0_ RTR  --- 3 DSR 32 [0 ffffffff 1 800] ------- [1:255 10:255 32 0] 1 [1 1] [0 1 0 0->0] [0 0 0 0->0]
r 15.009398874 _7_ RTR  --- 3 DSR 32 [0 ffffffff 1 800] ------- [1:255 10:255 32 0] 1 [1 1] [0 1 0 0->0] [0 0 0 0->0]
r 15.009398874 _2_ RTR  --- 3 DSR 32 [0 ffffffff 1 800] ------- [1:255 10:255 32 0] 1 [1 1] [0 1 0 0->0] [0 0 0 0->0]
r 15.009398953 _3_ RTR  --- 3 DSR 32 [0 ffffffff 1 800] ------- [1:255 10:255 32 0] 1 [1 1] [0 1 0 0->0] [0 0 0 0->0]
r 15.009398953 _5_ RTR  --- 3 DSR 32 [0 ffffffff 1 800] ------- [1:255 10:255 32 0] 1 [1 1] [0 1 0 0->0] [0 0 0 0->0]
r 15.010561208 _3_ RTR  --- 1 DSR 32 [0 ffffffff 0 800] ------- [0:255 10:255 32 0] 1 [1 1] [0 1 0 0->0] [0 0 0 0->0]
r 15.010561541 _6_ RTR  --- 1 DSR 32 [0 ffffffff 0 800] ------- [0:255 10:255 32 0] 1 [1 1] [0 1 0 0->0] [0 0 0 0->0]
r 15.010561541 _1_ RTR  --- 1 DSR 32 [0 ffffffff 0 800] ------- [0:255 10:255 32 0] 1 [1 1] [0 1 0 0->0] [0 0 0 0->0]
r 15.010561620 _4_ RTR  --- 1 DSR 32 [0 ffffffff 0 800] ------- [0:255 10:255 32 0] 1 [1 1] [0 1 0 0->0] [0 0 0 0->0]
s 15.065337541 _5_ RTR  --- 10 DSR 32 [0 0 0 0] ------- [5:255 6:255 32 0] 1 [1 2] [0 2 0 0->16] [0 0 0 0->0]
s 15.065844319 _1_ AGT  --- 12 cbr 512 [0 0 0 0] ------- [1:0 10:1 32 0] [1] 0 0
r 15.065844319 _1_ RTR  --- 12 cbr 512 [0 0 0 0] ------- [1:0 10:1 32 0] [1] 0 0
r 15.066209874 _2_ RTR  --- 10 DSR 32 [0 ffffffff 5 800] ------- [5:255 6:255 32 0] 1 [1 2] [0 2 0 0->16] [0 0 0 0->0]
r 15.066209874 _8_ RTR  --- 10 DSR 32 [0 ffffffff 5 800] ------- [5:255 6:255 32 0] 1 [1 2] [0 2 0 0->16] [0 0 0 0->0]
r 15.066210207 _4_ RTR  --- 10 DSR 32 [0 ffffffff 5 800] ------- [5:255 6:255 32 0] 1 [1 2] [0 2 0 0->16] [0 0 0 0->0]
r 15.066210207 _12_ RTR  --- 10 DSR 32 [0 ffffffff 5 800] ------- [5:255 6:255 32 0] 1 [1 2] [0 2 0 0->16] [0 0 0 0->0]
r 15.066210286 _7_ RTR  --- 10 DSR 32 [0 ffffffff 5 800] ------- [5:255 6:255 32 0] 1 [1 2] [0 2 0 0->16] [0 0 0 0->0]
r 15.066210286 _1_ RTR  --- 10 DSR 32 [0 ffffffff 5 800] ------- [5:255 6:255 32 0] 1 [1 2] [0 2 0 0->16] [0 0 0 0->0]
f 15.067094445 _7_ RTR  --- 10 DSR 48 [0 ffffffff 5 800] ------- [5:255 6:255 32 0] 2 [1 2] [0 2 0 0->16] [0 0 0 0->0]
s 15.067469865 _1_ RTR  --- 11 DSR 32 [0 0 0 0] ------- [1:255 10:255 32 0] 1 [1 2] [0 2 0 0->16] [0 0 0 0->0]
s 15.067533240 _0_ RTR  --- 9 DSR 32 [0 0 0 0] ------- [0:255 10:255 32 0] 1 [1 2] [0 2 0 0->16] [0 0 0 0->0]
r 15.068554778 _4_ RTR  --- 10 DSR 48 [0 ffffffff 7 800] ------- [5:255 6:255 32 0] 2 [1 2] [0 2 0 0->16] [0 0 0 0->0]
r 15.068555112 _1_ RTR  --- 10 DSR 48 [0 ffffffff 7 800] ------- [5:255 6:255 32 0] 2 [1 2] [0 2 0 0->16] [0 0 0 0->0]
r 15.068555112 _6_ RTR  --- 10 DSR 48 [0 ffffffff 7 800] ------- [5:255 6:255 32 0] 2 [1 2] [0 2 0 0->16] [0 0 0 0->0]
r 15.068555112 _10_ RTR  --- 10 DSR 48 [0 ffffffff 7 800] ------- [5:255 6:255 32 0] 2 [1 2] [0 2 0 0->16] [0 0 0 0->0]
r 15.068555112 _8_ RTR  --- 10 DSR 48 [0 ffffffff 7 800] ------- [5:255 6:255 32 0] 2 [1 2] [0 2 0 0->16] [0 0 0 0->0]
r 15.068555190 _3_ RTR  --- 10 DSR 48 [0 ffffffff 7 800] ------- [5:255 6:255 32 0] 2 [1 2] [0 2 0 0->16] [0 0 0 0->0]
r 15.068555190 _5_ RTR  --- 10 DSR 48 [0 ffffffff 7 800] ------- [5:255 6:255 32 0] 2 [1 2] [0 2 0 0->16] [0 0 0 0->0]
r 15.068555190 _12_ RTR  --- 10 DSR 48 [0 ffffffff 7 800] ------- [5:255 6:255 32 0] 2 [1 2] [0 2 0 0->16] [0 0 0 0->0]
f 15.068914052 _4_ RTR  --- 10 DSR 48 [0 ffffffff 5 800] ------- [5:255 6:255 32 0] 2 [1 2] [0 2 0 0->16] [0 0 0 0->0]
r 15.069317445 _4_ RTR  --- 11 DSR 32 [0 ffffffff 1 800] ------- [1:255 10:255 32 0] 1 [1 2] [0 2 0 0->16] [0 0 0 0->0]
r 15.069317778 _0_ RTR  --- 11 DSR 32 [0 ffffffff 1 800] ------- [1:255 10:255 32 0] 1 [1 2] [0 2 0 0->16] [0 0 0 0->0]
r 15.069317778 _7_ RTR  --- 11 DSR 32 [0 ffffffff 1 800] ------- [1:255 10:255 32 0] 1 [1 2] [0 2 0 0->16] [0 0 0 0->0]
r 15.069317778 _2_ RTR  --- 11 DSR 32 [0 ffffffff 1 800] ------- [1:255 10:255 32 0] 1 [1 2] [0 2 0 0->16] [0 0 0 0->0]
r 15.069317857 _3_ RTR  --- 11 DSR 32 [0 ffffffff 1 800] ------- [1:255 10:255 32 0] 1 [1 2] [0 2 0 0->16] [0 0 0 0->0]
r 15.069317857 _5_ RTR  --- 11 DSR 32 [0 ffffffff 1 800] ------- [1:255 10:255 32 0] 1 [1 2] [0 2 0 0->16] [0 0 0 0->0]
f 15.069646810 _2_ RTR  --- 10 DSR 48 [0 ffffffff 5 800] ------- [5:255 6:255 32 0] 2 [1 2] [0 2 0 0->16] [0 0 0 0->0]
r 15.070280112 _3_ RTR  --- 9 DSR 32 [0 ffffffff 0 800] ------- [0:255 10:255 32 0] 1 [1 2] [0 2 0 0->16] [0 0 0 0->0]
r 15.070280445 _6_ RTR  --- 9 DSR 32 [0 ffffffff 0 800] ------- [0:255 10:255 32 0] 1 [1 2] [0 2 0 0->16] [0 0 0 0->0]
r 15.070280445 _1_ RTR  --- 9 DSR 32 [0 ffffffff 0 800] ------- [0:255 10:255 32 0] 1 [1 2] [0 2 0 0->16] [0 0 0 0->0]
r 15.070280524 _4_ RTR  --- 9 DSR 32 [0 ffffffff 0 800] ------- [0:255 10:255 32 0] 1 [1 2] [0 2 0 0->16] [0 0 0 0->0]
f 15.070359393 _1_ RTR  --- 9 DSR 48 [0 ffffffff 0 800] ------- [0:255 10:255 32 0] 2 [1 2] [0 2 0 0->16] [0 0 0 0->0]
r 15.071150857 _1_ RTR  --- 10 DSR 48 [0 ffffffff 4 800] ------- [5:255 6:255 32 0] 2 [1 2] [0 2 0 0->16] [0 0 0 0->0]
r 15.071150857 _7_ RTR  --- 10 DSR 48 [0 ffffffff 4 800] ------- [5:255 6:255 32 0] 2 [1 2] [0 2 0 0->16] [0 0 0 0->0]
r 15.071151190 _3_ RTR  --- 10 DSR 48 [0 ffffffff 4 800] ------- [5:255 6:255 32 0] 2 [1 2] [0 2 0 0->16] [0 0 0 0->0]
r 15.071151190 _5_ RTR  --- 10 DSR 48 [0 ffffffff 4 800] ------- [5:255 6:255 32 0] 2 [1 2] [0 2 0 0->16] [0 0 0 0->0]
r 15.071151269 _6_ RTR  --- 10 DSR 48 [0 ffffffff 4 800] ------- [5:255 6:255 32 0] 2 [1 2] [0 2 0 0->16] [0 0 0 0->0]
r 15.071151269 _0_ RTR  --- 10 DSR 48 [0 ffffffff 4 800] ------- [5:255 6:255 32 0] 2 [1 2] [0 2 0 0->16] [0 0 0 0->0]
r 15.071151269 _2_ RTR  --- 10 DSR 48 [0 ffffffff 4 800] ------- [5:255 6:255 32 0] 2 [1 2] [0 2 0 0->16] [0 0 0 0->0]
r 15.071151269 _8_ RTR  --- 10 DSR 48 [0 ffffffff 4 800] ------- [5:255 6:255 32 0] 2 [1 2] [0 2 0 0->16] [0 0 0 0->0]
f 15.071652137 _1_ RTR  --- 10 DSR 48 [0 ffffffff 5 800] ------- [5:255 6:255 32 0] 2 [1 2] [0 2 0 0->16] [0 0 0 0->0]
r 15.072181190 _4_ RTR  --- 9 DSR 48 [0 ffffffff 1 800] ------- [0:255 10:255 32 0] 2 [1 2] [0 2 0 0->16] [0 0 0 0->0]
r 15.072181524 _0_ RTR  --- 9 DSR 48 [0 ffffffff 1 800] ------- [0:255 10:255 32 0] 2 [1 2] [0 2 0 0->16] [0 0 0 0->0]
r 15.072181524 _7_ RTR  --- 9 DSR 48 [0 ffffffff 1 800] ------- [0:255 10:255 32 0] 2 [1 2] [0 2 0 0->16] [0 0 0 0->0]
r 15.072181524 _2_ RTR  --- 9 DSR 48 [0 ffffffff 1 800] ------- [0:255 10:255 32 0] 2 [1 2] [0 2 0 0->16] [0 0 0 0->0]
r 15.072181602 _3_ RTR  --- 9 DSR 48 [0 ffffffff 1 800] ------- [0:255 10:255 32 0] 2 [1 2] [0 2 0 0->16] [0 0 0 0->0]
r 15.072181602 _5_ RTR  --- 9 DSR 48 [0 ffffffff 1 800] ------- [0:255 10:255 32 0] 2 [1 2] [0 2 0 0->16] [0 0 0 0->0]
f 15.072520487 _4_ RTR  --- 9 DSR 48 [0 ffffffff 0 800] ------- [0:255 10:255 32 0] 2 [1 2] [0 2 0 0->16] [0 0 0 0->0]
r 15.073311190 _4_ RTR  --- 10 DSR 48 [0 ffffffff 1 800] ------- [5:255 6:255 32 0] 2 [1 2] [0 2 0 0->16] [0 0 0 0->0]
r 15.073311524 _0_ RTR  --- 10 DSR 48 [0 ffffffff 1 800] ------- [5:255 6:255 32 0] 2 [1 2] [0 2 0 0->16] [0 0 0 0->0]
r 15.073311524 _7_ RTR  --- 10 DSR 48 [0 ffffffff 1 800] ------- [5:255 6:255 32 0] 2 [1 2] [0 2 0 0->16] [0 0 0 0->0]
r 15.073311524 _2_ RTR  --- 10 DSR 48 [0 ffffffff 1 800] ------- [5:255 6:255 32 0] 2 [1 2] [0 2 0 0->16] [0 0 0 0->0]
r 15.073311602 _3_ RTR  --- 10 DSR 48 [0 ffffffff 1 800] ------- [5:255 6:255 32 0] 2 [1 2] [0 2 0 0->16] [0 0 0 0->0]
r 15.073311602 _5_ RTR  --- 10 DSR 48 [0 ffffffff 1 800] ------- [5:255 6:255 32 0] 2 [1 2] [0 2 0 0->16] [0 0 0 0->0]
f 15.073346055 _0_ RTR  --- 10 DSR 68 [0 ffffffff 4 800] ------- [5:255 6:255 32 0] 3 [1 2] [0 2 0 0->16] [0 0 0 0->0]
f 15.073346949 _6_ RTR  --- 9 DSR 48 [0 ffffffff 0 800] ------- [0:255 10:255 32 0] 2 [1 2] [0 2 0 0->16] [0 0 0 0->0]
f 15.073472808 _0_ RTR  --- 11 DSR 48 [0 ffffffff 1 800] ------- [1:255 10:255 32 0] 2 [1 2] [0 2 0 0->16] [0 0 0 0->0]
r 15.074201857 _5_ RTR  --- 10 DSR 48 [0 ffffffff 2 800] ------- [5:255 6:255 32 0] 2 [1 2] [0 2 0 0->16] [0 0 0 0->0]
r 15.074202190 _1_ RTR  --- 10 DSR 48 [0 ffffffff 2 800] ------- [5:255 6:255 32 0] 2 [1 2] [0 2 0 0->16] [0 0 0 0->0]
r 15.074202190 _8_ RTR  --- 10 DSR 48 [0 ffffffff 2 800] ------- [5:255 6:255 32 0] 2 [1 2] [0 2 0 0->16] [0 0 0 0->0]
r 15.074202269 _4_ RTR  --- 10 DSR 48 [0 ffffffff 2 800] ------- [5:255 6:255 32 0] 2 [1 2] [0 2 0 0->16] [0 0 0 0->0]
f 15.074386321 _2_ RTR  --- 11 DSR 48 [0 ffffffff 1 800] ------- [1:255 10:255 32 0] 2 [1 2] [0 2 0 0->16] [0 0 0 0->0]
f 15.074432452 _12_ RTR  --- 10 DSR 48 [0 ffffffff 5 800] ------- [5:255 6:255 32 0] 2 [1 2] [0 2 0 0->16] [0 0 0 0->0]
s 15.074460496 _6_ RTR  --- 14 DSR 52 [0 0 0 0] ------- [6:255 5:255 254 7] 3 [0 2] [1 2 3 5->6] [0 0 0 0->0]
f 15.075377708 _8_ RTR  --- 10 DSR 48 [0 ffffffff 5 800] ------- [5:255 6:255 32 0] 2 [1 2] [0 2 0 0->16] [0 0 0 0->0]
r 15.075432602 _1_ RTR  --- 9 DSR 48 [0 ffffffff 4 800] ------- [0:255 10:255 32 0] 2 [1 2] [0 2 0 0->16] [0 0 0 0->0]
r 15.075432602 _7_ RTR  --- 9 DSR 48 [0 ffffffff 4 800] ------- [0:255 10:255 32 0] 2 [1 2] [0 2 0 0->16] [0 0 0 0->0]
r 15.075432936 _3_ RTR  --- 9 DSR 48 [0 ffffffff 4 800] ------- [0:255 10:255 32 0] 2 [1 2] [0 2 0 0->16] [0 0 0 0->0]
r 15.075432936 _5_ RTR  --- 9 DSR 48 [0 ffffffff 4 800] ------- [0:255 10:255 32 0] 2 [1 2] [0 2 0 0->16] [0 0 0 0->0]
r 15.075433014 _6_ RTR  --- 9 DSR 48 [0 ffffffff 4 800] ------- [0:255 10:255 32 0] 2 [1 2] [0 2 0 0->16] [0 0 0 0->0]
r 15.075433014 _0_ RTR  --- 9 DSR 48 [0 ffffffff 4 800] ------- [0:255 10:255 32 0] 2 [1 2] [0 2 0 0->16] [0 0 0 0->0]
r 15.075433014 _2_ RTR  --- 9 DSR 48 [0 ffffffff 4 800] ------- [0:255 10:255 32 0] 2 [1 2] [0 2 0 0->16] [0 0 0 0->0]
r 15.075433014 _8_ RTR  --- 9 DSR 48 [0 ffffffff 4 800] ------- [0:255 10:255 32 0] 2 [1 2] [0 2 0 0->16] [0 0 0 0->0]
f 15.075473195 _3_ RTR  --- 9 DSR 48 [0 ffffffff 0 800] ------- [0:255 10:255 32 0] 2 [1 2] [0 2 0 0->16] [0 0 0 0->0]
f 15.075650474 _7_ RTR  --- 9 DSR 68 [0 ffffffff 1 800] ------- [0:255 10:255 32 0] 3 [1 2] [0 2 0 0->16] [0 0 0 0->0]
f 15.075902473 _5_ RTR  --- 9 DSR 68 [0 ffffffff 1 800] ------- [0:255 10:255 32 0] 3 [1 2] [0 2 0 0->16] [0 0 0 0->0]
f 15.075965311 _10_ RTR  --- 10 DSR 68 [0 ffffffff 7 800] ------- [5:255 6:255 32 0] 3 [1 2] [0 2 0 0->16] [0 0 0 0->0]
r 15.076303348 _5_ RTR  --- 11 DSR 48 [0 ffffffff 2 800] ------- [1:255 10:255 32 0] 2 [1 2] [0 2 0 0->16] [0 0 0 0->0]
r 15.076303681 _1_ RTR  --- 11 DSR 48 [0 ffffffff 2 800] ------- [1:255 10:255 32 0] 2 [1 2] [0 2 0 0->16] [0 0 0 0->0]
r 15.076303681 _8_ RTR  --- 11 DSR 48 [0 ffffffff 2 800] ------- [1:255 10:255 32 0] 2 [1 2] [0 2 0 0->16] [0 0 0 0->0]
r 15.076303760 _4_ RTR  --- 11 DSR 48 [0 ffffffff 2 800] ------- [1:255 10:255 32 0] 2 [1 2] [0 2 0 0->16] [0 0 0 0->0]
f 15.077111504 _3_ RTR  --- 11 DSR 48 [0 ffffffff 1 800] ------- [1:255 10:255 32 0] 2 [1 2] [0 2 0 0->16] [0 0 0 0->0]
r 15.077314014 _5_ RTR  --- 10 DSR 48 [0 ffffffff 8 800] ------- [5:255 6:255 32 0] 2 [1 2] [0 2 0 0->16] [0 0 0 0->0]
r 15.077314014 _12_ RTR  --- 10 DSR 48 [0 ffffffff 8 800] ------- [5:255 6:255 32 0] 2 [1 2] [0 2 0 0->16] [0 0 0 0->0]
r 15.077314348 _2_ RTR  --- 10 DSR 48 [0 ffffffff 8 800] ------- [5:255 6:255 32 0] 2 [1 2] [0 2 0 0->16] [0 0 0 0->0]
r 15.077314348 _7_ RTR  --- 10 DSR 48 [0 ffffffff 8 800] ------- [5:255 6:255 32 0] 2 [1 2] [0 2 0 0->16] [0 0 0 0->0]
r 15.077314348 _11_ RTR  --- 10 DSR 48 [0 ffffffff 8 800] ------- [5:255 6:255 32 0] 2 [1 2] [0 2 0 0->16] [0 0 0 0->0]
r 15.077314426 _4_ RTR  --- 10 DSR 48 [0 ffffffff 8 800] ------- [5:255 6:255 32 0] 2 [1 2] [0 2 0 0->16] [0 0 0 0->0]
f 15.077558997 _3_ RTR  --- 10 DSR 68 [0 ffffffff 7 800] ------- [5:255 6:255 32 0] 3 [1 2] [0 2 0 0->16] [0 0 0 0->0]
f 15.077782452 _5_ RTR  --- 11 DSR 48 [0 ffffffff 1 800] ------- [1:255 10:255 32 0] 2 [1 2] [0 2 0 0->16] [0 0 0 0->0]
r 15.078544348 _2_ RTR  --- 9 DSR 68 [0 ffffffff 5 800] ------- [0:255 10:255 32 0] 3 [1 2] [0 2 0 0->16] [0 0 0 0->0]
r 15.078544348 _8_ RTR  --- 9 DSR 68 [0 ffffffff 5 800] ------- [0:255 10:255 32 0] 3 [1 2] [0 2 0 0->16] [0 0 0 0->0]
r 15.078544681 _4_ RTR  --- 9 DSR 68 [0 ffffffff 5 800] ------- [0:255 10:255 32 0] 3 [1 2] [0 2 0 0->16] [0 0 0 0->0]
r 15.078544681 _12_ RTR  --- 9 DSR 68 [0 ffffffff 5 800] ------- [0:255 10:255 32 0] 3 [1 2] [0 2 0 0->16] [0 0 0 0->0]
r 15.078544760 _7_ RTR  --- 9 DSR 68 [0 ffffffff 5 800] ------- [0:255 10:255 32 0] 3 [1 2] [0 2 0 0->16] [0 0 0 0->0]
r 15.078544760 _1_ RTR  --- 9 DSR 68 [0 ffffffff 5 800] ------- [0:255 10:255 32 0] 3 [1 2] [0 2 0 0->16] [0 0 0 0->0]
f 15.078617596 _7_ RTR  --- 11 DSR 48 [0 ffffffff 1 800] ------- [1:255 10:255 32 0] 2 [1 2] [0 2 0 0->16] [0 0 0 0->0]
f 15.078785591 _2_ RTR  --- 9 DSR 68 [0 ffffffff 1 800] ------- [0:255 10:255 32 0] 3 [1 2] [0 2 0 0->16] [0 0 0 0->0]
f 15.078951334 _4_ RTR  --- 11 DSR 48 [0 ffffffff 1 800] ------- [1:255 10:255 32 0] 2 [1 2] [0 2 0 0->16] [0 0 0 0->0]
r 15.079415014 _11_ RTR  --- 10 DSR 48 [0 ffffffff c 800] ------- [5:255 6:255 32 0] 2 [1 2] [0 2 0 0->16] [0 0 0 0->0]
r 15.079415014 _8_ RTR  --- 10 DSR 48 [0 ffffffff c 800] ------- [5:255 6:255 32 0] 2 [1 2] [0 2 0 0->16] [0 0 0 0->0]
r 15.079415348 _5_ RTR  --- 10 DSR 48 [0 ffffffff c 800] ------- [5:255 6:255 32 0] 2 [1 2] [0 2 0 0->16] [0 0 0 0->0]
r 15.079415426 _10_ RTR  --- 10 DSR 48 [0 ffffffff c 800] ------- [5:255 6:255 32 0] 2 [1 2] [0 2 0 0->16] [0 0 0 0->0]
r 15.079415426 _7_ RTR  --- 10 DSR 48 [0 ffffffff c 800] ------- [5:255 6:255 32 0] 2 [1 2] [0 2 0 0->16] [0 0 0 0->0]
s 15.080444109 _6_ RTR  --- 15 DSR 52 [0 0 0 0] ------- [6:255 5:255 254 4] 3 [0 2] [1 2 3 5->6] [0 0 0 0->0]
r 15.080725760 _4_ RTR  --- 9 DSR 68 [0 ffffffff 7 800] ------- [0:255 10:255 32 0] 3 [1 2] [0 2 0 0->16] [0 0 0 0->0]
r 15.080726093 _1_ RTR  --- 9 DSR 68 [0 ffffffff 7 800] ------- [0:255 10:255 32 0] 3 [1 2] [0 2 0 0->16] [0 0 0 0->0]
r 15.080726093 _6_ RTR  --- 9 DSR 68 [0 ffffffff 7 800] ------- [0:255 10:255 32 0] 3 [1 2] [0 2 0 0->16] [0 0 0 0->0]
r 15.080726093 _10_ RTR  --- 9 DSR 68 [0 ffffffff 7 800] ------- [0:255 10:255 32 0] 3 [1 2] [0 2 0 0->16] [0 0 0 0->0]
r 15.080726093 _8_ RTR  --- 9 DSR 68 [0 ffffffff 7 800] ------- [0:255 10:255 32 0] 3 [1 2] [0 2 0 0->16] [0 0 0 0->0]
r 15.080726172 _3_ RTR  --- 9 DSR 68 [0 ffffffff 7 800] ------- [0:255 10:255 32 0] 3 [1 2] [0 2 0 0->16] [0 0 0 0->0]
r 15.080726172 _5_ RTR  --- 9 DSR 68 [0 ffffffff 7 800] ------- [0:255 10:255 32 0] 3 [1 2] [0 2 0 0->16] [0 0 0 0->0]
r 15.080726172 _12_ RTR  --- 9 DSR 68 [0 ffffffff 7 800] ------- [0:255 10:255 32 0] 3 [1 2] [0 2 0 0->16] [0 0 0 0->0]
f 15.081141988 _11_ RTR  --- 10 DSR 68 [0 ffffffff 8 800] ------- [5:255 6:255 32 0] 3 [1 2] [0 2 0 0->16] [0 0 0 0->0]
f 15.081408635 _8_ RTR  --- 9 DSR 68 [0 ffffffff 4 800] ------- [0:255 10:255 32 0] 3 [1 2] [0 2 0 0->16] [0 0 0 0->0]
r 15.081596505 _2_ RTR  --- 11 DSR 48 [0 ffffffff 5 800] ------- [1:255 10:255 32 0] 2 [1 2] [0 2 0 0->16] [0 0 0 0->0]
r 15.081596505 _8_ RTR  --- 11 DSR 48 [0 ffffffff 5 800] ------- [1:255 10:255 32 0] 2 [1 2] [0 2 0 0->16] [0 0 0 0->0]
r 15.081596838 _4_ RTR  --- 11 DSR 48 [0 ffffffff 5 800] ------- [1:255 10:255 32 0] 2 [1 2] [0 2 0 0->16] [0 0 0 0->0]
r 15.081596838 _12_ RTR  --- 11 DSR 48 [0 ffffffff 5 800] ------- [1:255 10:255 32 0] 2 [1 2] [0 2 0 0->16] [0 0 0 0->0]
r 15.081596917 _7_ RTR  --- 11 DSR 48 [0 ffffffff 5 800] ------- [1:255 10:255 32 0] 2 [1 2] [0 2 0 0->16] [0 0 0 0->0]
r 15.081596917 _1_ RTR  --- 11 DSR 48 [0 ffffffff 5 800] ------- [1:255 10:255 32 0] 2 [1 2] [0 2 0 0->16] [0 0 0 0->0]
r 15.082487172 _1_ RTR  --- 11 DSR 48 [0 ffffffff 4 800] ------- [1:255 10:255 32 0] 2 [1 2] [0 2 0 0->16] [0 0 0 0->0]
r 15.082487172 _7_ RTR  --- 11 DSR 48 [0 ffffffff 4 800] ------- [1:255 10:255 32 0] 2 [1 2] [0 2 0 0->16] [0 0 0 0->0]
r 15.082487505 _3_ RTR  --- 11 DSR 48 [0 ffffffff 4 800] ------- [1:255 10:255 32 0] 2 [1 2] [0 2 0 0->16] [0 0 0 0->0]
r 15.082487505 _5_ RTR  --- 11 DSR 48 [0 ffffffff 4 800] ------- [1:255 10:255 32 0] 2 [1 2] [0 2 0 0->16] [0 0 0 0->0]
r 15.082487584 _6_ RTR  --- 11 DSR 48 [0 ffffffff 4 800] ------- [1:255 10:255 32 0] 2 [1 2] [0 2 0 0->16] [0 0 0 0->0]
r 15.082487584 _0_ RTR  --- 11 DSR 48 [0 ffffffff 4 800] ------- [1:255 10:255 32 0] 2 [1 2] [0 2 0 0->16] [0 0 0 0->0]
r 15.082487584 _2_ RTR  --- 11 DSR 48 [0 ffffffff 4 800] ------- [1:255 10:255 32 0] 2 [1 2] [0 2 0 0->16] [0 0 0 0->0]
r 15.082487584 _8_ RTR  --- 11 DSR 48 [0 ffffffff 4 800] ------- [1:255 10:255 32 0] 2 [1 2] [0 2 0 0->16] [0 0 0 0->0]
f 15.082537611 _12_ RTR  --- 9 DSR 92 [0 ffffffff 5 800] ------- [0:255 10:255 32 0] 4 [1 2] [0 2 0 0->16] [0 0 0 0->0]
f 15.082947352 _12_ RTR  --- 11 DSR 68 [0 ffffffff 5 800] ------- [1:255 10:255 32 0] 3 [1 2] [0 2 0 0->16] [0 0 0 0->0]
r 15.083517917 _5_ RTR  --- 9 DSR 68 [0 ffffffff 2 800] ------- [0:255 10:255 32 0] 3 [1 2] [0 2 0 0->16] [0 0 0 0->0]
r 15.083518250 _1_ RTR  --- 9 DSR 68 [0 ffffffff 2 800] ------- [0:255 10:255 32 0] 3 [1 2] [0 2 0 0->16] [0 0 0 0->0]
r 15.083518250 _8_ RTR  --- 9 DSR 68 [0 ffffffff 2 800] ------- [0:255 10:255 32 0] 3 [1 2] [0 2 0 0->16] [0 0 0 0->0]
r 15.083518329 _4_ RTR  --- 9 DSR 68 [0 ffffffff 2 800] ------- [0:255 10:255 32 0] 3 [1 2] [0 2 0 0->16] [0 0 0 0->0]
r 15.084568584 _5_ RTR  --- 9 DSR 68 [0 ffffffff 8 800] ------- [0:255 10:255 32 0] 3 [1 2] [0 2 0 0->16] [0 0 0 0->0]
r 15.084568584 _12_ RTR  --- 9 DSR 68 [0 ffffffff 8 800] ------- [0:255 10:255 32 0] 3 [1 2] [0 2 0 0->16] [0 0 0 0->0]
r 15.084568917 _2_ RTR  --- 9 DSR 68 [0 ffffffff 8 800] ------- [0:255 10:255 32 0] 3 [1 2] [0 2 0 0->16] [0 0 0 0->0]
r 15.084568917 _7_ RTR  --- 9 DSR 68 [0 ffffffff 8 800] ------- [0:255 10:255 32 0] 3 [1 2] [0 2 0 0->16] [0 0 0 0->0]
r 15.084568917 _11_ RTR  --- 9 DSR 68 [0 ffffffff 8 800] ------- [0:255 10:255 32 0] 3 [1 2] [0 2 0 0->16] [0 0 0 0->0]
r 15.084568996 _4_ RTR  --- 9 DSR 68 [0 ffffffff 8 800] ------- [0:255 10:255 32 0] 3 [1 2] [0 2 0 0->16] [0 0 0 0->0]
f 15.085668116 _8_ RTR  --- 11 DSR 68 [0 ffffffff 2 800] ------- [1:255 10:255 32 0] 3 [1 2] [0 2 0 0->16] [0 0 0 0->0]
r 15.086010917 _11_ RTR  --- 9 DSR 92 [0 ffffffff c 800] ------- [0:255 10:255 32 0] 4 [1 2] [0 2 0 0->16] [0 0 0 0->0]
r 15.086010917 _8_ RTR  --- 9 DSR 92 [0 ffffffff c 800] ------- [0:255 10:255 32 0] 4 [1 2] [0 2 0 0->16] [0 0 0 0->0]
r 15.086011250 _5_ RTR  --- 9 DSR 92 [0 ffffffff c 800] ------- [0:255 10:255 32 0] 4 [1 2] [0 2 0 0->16] [0 0 0 0->0]
r 15.086011329 _10_ RTR  --- 9 DSR 92 [0 ffffffff c 800] ------- [0:255 10:255 32 0] 4 [1 2] [0 2 0 0->16] [0 0 0 0->0]
r 15.086011329 _7_ RTR  --- 9 DSR 92 [0 ffffffff c 800] ------- [0:255 10:255 32 0] 4 [1 2] [0 2 0 0->16] [0 0 0 0->0]
r 15.087061250 _12_ RTR  --- 10 DSR 68 [0 ffffffff b 800] ------- [5:255 6:255 32 0] 3 [1 2] [0 2 0 0->16] [0 0 0 0->0]
r 15.087061584 _8_ RTR  --- 10 DSR 68 [0 ffffffff b 800] ------- [5:255 6:255 32 0] 3 [1 2] [0 2 0 0->16] [0 0 0 0->0]
r 15.087061584 _10_ RTR  --- 10 DSR 68 [0 ffffffff b 800] ------- [5:255 6:255 32 0] 3 [1 2] [0 2 0 0->16] [0 0 0 0->0]
s 15.088045057 _0_ AGT  --- 18 cbr 512 [0 0 0 0] ------- [0:0 10:0 32 0] [1] 0 0
r 15.088045057 _0_ RTR  --- 18 cbr 512 [0 0 0 0] ------- [0:0 10:0 32 0] [1] 0 0
r 15.088676584 _3_ RTR  --- 11 DSR 48 [0 ffffffff 0 800] ------- [1:255 10:255 32 0] 2 [1 2] [0 2 0 0->16] [0 0 0 0->0]
r 15.088676917 _6_ RTR  --- 11 DSR 48 [0 ffffffff 0 800] ------- [1:255 10:255 32 0] 2 [1 2] [0 2 0 0->16] [0 0 0 0->0]
r 15.088676917 _1_ RTR  --- 11 DSR 48 [0 ffffffff 0 800] ------- [1:255 10:255 32 0] 2 [1 2] [0 2 0 0->16] [0 0 0 0->0]
r 15.088676996 _4_ RTR  --- 11 DSR 48 [0 ffffffff 0 800] ------- [1:255 10:255 32 0] 2 [1 2] [0 2 0 0->16] [0 0 0 0->0]
s 15.088928325 _10_ RTR  --- 16 DSR 60 [0 0 0 0] ------- [10:255 0:255 254 7] 4 [0 2] [1 2 4 0->10] [0 0 0 0->0]
r 15.089667250 _3_ RTR  --- 9 DSR 48 [0 ffffffff 6 800] ------- [0:255 10:255 32 0] 2 [1 2] [0 2 0 0->16] [0 0 0 0->0]
r 15.089667584 _0_ RTR  --- 9 DSR 48 [0 ffffffff 6 800] ------- [0:255 10:255 32 0] 2 [1 2] [0 2 0 0->16] [0 0 0 0->0]
r 15.089667584 _9_ RTR  --- 9 DSR 48 [0 ffffffff 6 800] ------- [0:255 10:255 32 0] 2 [1 2] [0 2 0 0->16] [0 0 0 0->0]
r 15.089667584 _7_ RTR  --- 9 DSR 48 [0 ffffffff 6 800] ------- [0:255 10:255 32 0] 2 [1 2] [0 2 0 0->16] [0 0 0 0->0]
r 15.089667662 _4_ RTR  --- 9 DSR 48 [0 ffffffff 6 800] ------- [0:255 10:255 32 0] 2 [1 2] [0 2 0 0->16] [0 0 0 0->0]
f 15.091169839 _6_ RTR  --- 11 DSR 68 [0 ffffffff 4 800] ------- [1:255 10:255 32 0] 3 [1 2] [0 2 0 0->16] [0 0 0 0->0]
r 15.091287153 _4_ RTR  --- 15 DSR 52 [13a 4 6 800] ------- [6:255 5:255 254 4] 3 [0 2] [1 2 3 5->6] [0 0 0 0->0]
f 15.091287153 _4_ RTR  --- 15 DSR 52 [13a 4 6 800] ------- [6:255 5:255 253 5] 3 [0 2] [1 2 3 5->6] [0 0 0 0->0]
r 15.092492153 _0_ RTR  --- 9 DSR 48 [0 ffffffff 3 800] ------- [0:255 10:255 32 0] 2 [1 2] [0 2 0 0->16] [0 0 0 0->0]
r 15.092492153 _6_ RTR  --- 9 DSR 48 [0 ffffffff 3 800] ------- [0:255 10:255 32 0] 2 [1 2] [0 2 0 0->16] [0 0 0 0->0]
r 15.092492486 _4_ RTR  --- 9 DSR 48 [0 ffffffff 3 800] ------- [0:255 10:255 32 0] 2 [1 2] [0 2 0 0->16] [0 0 0 0->0]
r 15.092492565 _1_ RTR  --- 9 DSR 48 [0 ffffffff 3 800] ------- [0:255 10:255 32 0] 2 [1 2] [0 2 0 0->16] [0 0 0 0->0]
r 15.092492565 _7_ RTR  --- 9 DSR 48 [0 ffffffff 3 800] ------- [0:255 10:255 32 0] 2 [1 2] [0 2 0 0->16] [0 0 0 0->0]
r 15.093562153 _0_ RTR  --- 10 DSR 68 [0 ffffffff 3 800] ------- [5:255 6:255 32 0] 3 [1 2] [0 2 0 0->16] [0 0 0 0->0]
r 15.093562153 _6_ RTR  --- 10 DSR 68 [0 ffffffff 3 800] ------- [5:255 6:255 32 0] 3 [1 2] [0 2 0 0->16] [0 0 0 0->0]
r 15.093562486 _3_ RTR  --- 11 DSR 68 [0 ffffffff 6 800] ------- [1:255 10:255 32 0] 3 [1 2] [0 2 0 0->16] [0 0 0 0->0]
s 15.093585699 _6_ RTR  --- 20 DSR 60 [0 0 0 0] ------- [6:255 5:255 254 3] 4 [0 2] [1 2 4 5->6] [0 0 0 0->0]
s 15.093586478 _10_ RTR  --- 17 DSR 68 [0 0 0 0] ------- [10:255 0:255 254 12] 5 [0 2] [1 2 5 0->10] [0 0 0 0->0]
f 15.094226382 _9_ RTR  --- 9 DSR 68 [0 ffffffff 6 800] ------- [0:255 10:255 32 0] 3 [1 2] [0 2 0 0->16] [0 0 0 0->0]
f 15.094417388 _11_ RTR  --- 9 DSR 92 [0 ffffffff 8 800] ------- [0:255 10:255 32 0] 4 [1 2] [0 2 0 0->16] [0 0 0 0->0]
r 15.094632820 _0_ RTR  --- 11 DSR 48 [0 ffffffff 3 800] ------- [1:255 10:255 32 0] 2 [1 2] [0 2 0 0->16] [0 0 0 0->0]
r 15.094632820 _6_ RTR  --- 11 DSR 48 [0 ffffffff 3 800] ------- [1:255 10:255 32 0] 2 [1 2] [0 2 0 0->16] [0 0 0 0->0]
r 15.094633153 _4_ RTR  --- 11 DSR 48 [0 ffffffff 3 800] ------- [1:255 10:255 32 0] 2 [1 2] [0 2 0 0->16] [0 0 0 0->0]
r 15.094633232 _1_ RTR  --- 11 DSR 48 [0 ffffffff 3 800] ------- [1:255 10:255 32 0] 2 [1 2] [0 2 0 0->16] [0 0 0 0->0]
r 15.094633232 _7_ RTR  --- 11 DSR 48 [0 ffffffff 3 800] ------- [1:255 10:255 32 0] 2 [1 2] [0 2 0 0->16] [0 0 0 0->0]
r 15.095563565 _4_ RTR  --- 11 DSR 48 [0 ffffffff 7 800] ------- [1:255 10:255 32 0] 2 [1 2] [0 2 0 0->16] [0 0 0 0->0]
r 15.096958310 _11_ RTR  --- 11 DSR 68 [0 ffffffff c 800] ------- [1:255 10:255 32 0] 3 [1 2] [0 2 0 0->16] [0 0 0 0->0]
r 15.096958310 _8_ RTR  --- 11 DSR 68 [0 ffffffff c 800] ------- [1:255 10:255 32 0] 3 [1 2] [0 2 0 0->16] [0 0 0 0->0]
r 15.096958644 _5_ RTR  --- 11 DSR 68 [0 ffffffff c 800] ------- [1:255 10:255 32 0] 3 [1 2] [0 2 0 0->16] [0 0 0 0->0]
r 15.096958722 _10_ RTR  --- 11 DSR 68 [0 ffffffff c 800] ------- [1:255 10:255 32 0] 3 [1 2] [0 2 0 0->16] [0 0 0 0->0]
r 15.096958722 _7_ RTR  --- 11 DSR 68 [0 ffffffff c 800] ------- [1:255 10:255 32 0] 3 [1 2] [0 2 0 0->16] [0 0 0 0->0]
s 15.097328784 _10_ RTR  --- 23 DSR 60 [0 0 0 0] ------- [10:255 1:255 254 12] 4 [0 2] [1 2 4 1->10] [0 0 0 0->0]
r 15.098029389 _7_ RTR  --- 10 DSR 68 [0 ffffffff a 800] ------- [5:255 6:255 32 0] 3 [1 2] [0 2 0 0->16] [0 0 0 0->0]
r 15.098029389 _9_ RTR  --- 10 DSR 68 [0 ffffffff a 800] ------- [5:255 6:255 32 0] 3 [1 2] [0 2 0 0->16] [0 0 0 0->0]
r 15.098029389 _11_ RTR  --- 10 DSR 68 [0 ffffffff a 800] ------- [5:255 6:255 32 0] 3 [1 2] [0 2 0 0->16] [0 0 0 0->0]
s 15.098029389 _9_ RTR  --- 24 DSR 64 [0 0 0 0] ------- [9:255 5:255 255 10] 4 [0 2] [1 2 5 5->6] [0 0 0 0->0]
r 15.098029468 _12_ RTR  --- 10 DSR 68 [0 ffffffff a 800] ------- [5:255 6:255 32 0] 3 [1 2] [0 2 0 0->16] [0 0 0 0->0]
r 15.099391722 _12_ RTR  --- 9 DSR 92 [0 ffffffff b 800] ------- [0:255 10:255 32 0] 4 [1 2] [0 2 0 0->16] [0 0 0 0->0]
r 15.099392056 _8_ RTR  --- 9 DSR 92 [0 ffffffff b 800] ------- [0:255 10:255 32 0] 4 [1 2] [0 2 0 0->16] [0 0 0 0->0]
r 15.099392056 _10_ RTR  --- 9 DSR 92 [0 ffffffff b 800] ------- [0:255 10:255 32 0] 4 [1 2] [0 2 0 0->16] [0 0 0 0->0]
f 15.099808693 _11_ RTR  --- 11 DSR 92 [0 ffffffff c 800] ------- [1:255 10:255 32 0] 4 [1 2] [0 2 0 0->16] [0 0 0 0->0]
r 15.100582389 _5_ RTR  --- 11 DSR 68 [0 ffffffff 8 800] ------- [1:255 10:255 32 0] 3 [1 2] [0 2 0 0->16] [0 0 0 0->0]
r 15.100582389 _12_ RTR  --- 11 DSR 68 [0 ffffffff 8 800] ------- [1:255 10:255 32 0] 3 [1 2] [0 2 0 0->16] [0 0 0 0->0]
r 15.100582722 _2_ RTR  --- 11 DSR 68 [0 ffffffff 8 800] ------- [1:255 10:255 32 0] 3 [1 2] [0 2 0 0->16] [0 0 0 0->0]
r 15.100582722 _7_ RTR  --- 11 DSR 68 [0 ffffffff 8 800] ------- [1:255 10:255 32 0] 3 [1 2] [0 2 0 0->16] [0 0 0 0->0]
r 15.100582722 _11_ RTR  --- 11 DSR 68 [0 ffffffff 8 800] ------- [1:255 10:255 32 0] 3 [1 2] [0 2 0 0->16] [0 0 0 0->0]
r 15.100582801 _4_ RTR  --- 11 DSR 68 [0 ffffffff 8 800] ------- [1:255 10:255 32 0] 3 [1 2] [0 2 0 0->16] [0 0 0 0->0]
r 15.101885056 _12_ RTR  --- 11 DSR 92 [0 ffffffff b 800] ------- [1:255 10:255 32 0] 4 [1 2] [0 2 0 0->16] [0 0 0 0->0]
r 15.101885389 _8_ RTR  --- 11 DSR 92 [0 ffffffff b 800] ------- [1:255 10:255 32 0] 4 [1 2] [0 2 0 0->16] [0 0 0 0->0]
r 15.101885389 _10_ RTR  --- 11 DSR 92 [0 ffffffff b 800] ------- [1:255 10:255 32 0] 4 [1 2] [0 2 0 0->16] [0 0 0 0->0]
r 15.103669625 _12_ RTR  --- 23 DSR 60 [13a c a 800] ------- [10:255 1:255 254 12] 4 [0 2] [1 2 4 1->10] [0 0 0 0->0]
f 15.103669625 _12_ RTR  --- 23 DSR 60 [13a c a 800] ------- [10:255 1:255 253 5] 4 [0 2] [1 2 4 1->10] [0 0 0 0->0]
s 15.104576195 _10_ RTR  --- 25 DSR 68 [0 0 0 0] ------- [10:255 0:255 254 11] 5 [0 2] [1 2 5 0->10] [0 0 0 0->0]
r 15.105967625 _5_ RTR  --- 23 DSR 60 [13a 5 c 800] ------- [10:255 1:255 253 5] 4 [0 2] [1 2 4 1->10] [0 0 0 0->0]
f 15.105967625 _5_ RTR  --- 23 DSR 60 [13a 5 c 800] ------- [10:255 1:255 252 1] 4 [0 2] [1 2 4 1->10] [0 0 0 0->0]
s 15.107602516 _10_ RTR  --- 29 DSR 68 [0 0 0 0] ------- [10:255 1:255 254 11] 5 [0 2] [1 2 5 1->10] [0 0 0 0->0]
r 15.108085861 _1_ RTR  --- 23 DSR 60 [13a 1 5 800] ------- [10:255 1:255 252 1] 4 [0 2] [1 2 4 1->10] [0 0 0 0->0]
SFESTs 15.108085861 _1_ 2 [1 -> 10] 1(1) to 5 [1 |5 12 10 ]
SFESTs 15.108085861 _1_ 12 [1 -> 10] 1(1) to 5 [1 |5 12 10 ]
s 15.108085861 _1_ RTR  --- 2 cbr 556 [0 0 0 0] ------- [1:0 10:1 32 5] [0] 0 0
r 15.114152097 _5_ RTR  --- 2 cbr 556 [13a 5 1 800] ------- [1:0 10:1 32 5] [0] 1 0
f 15.114152097 _5_ RTR  --- 2 cbr 556 [13a 5 1 800] ------- [1:0 10:1 31 12] [0] 1 0
r 15.116166764 _5_ RTR  --- 15 DSR 52 [13a 5 4 800] ------- [6:255 5:255 253 5] 3 [0 2] [1 2 3 5->6] [0 0 0 0->0]
SFESTs 15.116166764 _5_ 4 [5 -> 6] 1(1) to 4 [5 |4 6 ]
s 15.116166764 _5_ RTR  --- 4 cbr 552 [0 0 0 0] ------- [5:0 6:0 32 4] [0] 0 0
s 15.120905830 _5_ AGT  --- 30 cbr 512 [0 0 0 0] ------- [5:0 6:0 32 0] [1] 0 0
r 15.120905830 _5_ RTR  --- 30 cbr 512 [0 0 0 0] ------- [5:0 6:0 32 0] [1] 0 0
SFESTs 15.120905830 _5_ 30 [5 -> 6] 1(1) to 4 [5 |4 6 ]
s 15.120905830 _5_ RTR  --- 30 cbr 552 [0 0 0 0] ------- [5:0 6:0 32 4] [1] 0 0
r 15.122212764 _12_ RTR  --- 2 cbr 556 [13a c 5 800] ------- [1:0 10:1 31 12] [0] 2 0
f 15.122212764 _12_ RTR  --- 2 cbr 556 [13a c 5 800] ------- [1:0 10:1 30 10] [0] 2 0
r 15.128227431 _4_ RTR  --- 4 cbr 552 [13a 4 5 800] ------- [5:0 6:0 32 4] [0] 1 0
f 15.128227431 _4_ RTR  --- 4 cbr 552 [13a 4 5 800] ------- [5:0 6:0 31 6] [0] 1 0
r 15.130292138 _7_ RTR  --- 14 DSR 52 [13a 7 6 800] ------- [6:255 5:255 254 7] 3 [0 2] [1 2 3 5->6] [0 0 0 0->0]
f 15.130292138 _7_ RTR  --- 14 DSR 52 [13a 7 6 800] ------- [6:255 5:255 253 5] 3 [0 2] [1 2 3 5->6] [0 0 0 0->0]
r 15.136289082 _10_ RTR  --- 2 cbr 556 [13a a c 800] ------- [1:0 10:1 30 10] [0] 3 0
r 15.136289082 _10_ AGT  --- 2 cbr 512 [13a a c 800] ------- [1:0 10:1 30 10] [0] 3 0