n -t * -s 0  -x 100 -y 100 -Z 0 -z 30  -v circle -c black
n -t * -s 1  -x 300 -y 100 -Z 0 -z 30  -v circle -c black
n -t * -s 2  -x 500 -y 100 -Z 0 -z 30  -v circle -c black
n -t * -s 3  -x 100 -y 200 -Z 0 -z 30  -v circle -c black
n -t * -s 4  -x 300 -y 200 -Z 0 -z 30  -v circle -c black
n -t * -s 5  -x 500 -y 200 -Z 0 -z 30  -v circle -c black
n -t * -s 6  -x 100 -y 300 -Z 0 -z 30  -v circle -c black
n -t * -s 7  -x 300 -y 300 -Z 0 -z 30  -v circle -c black
n -t * -s 8  -x 500 -y 300 -Z 0 -z 30  -v circle -c black
n -t * -s 9  -x 100 -y 500 -Z 0 -z 30  -v circle -c black
n -t * -s 10  -x 300 -y 500 -Z 0 -z 30  -v circle -c black
n -t * -s 11  -x 500 -y 500 -Z 0 -z 30  -v circle -c black
n -t * -s 12  -x 500 -y 400 -Z 0 -z 30  -v circle -c black
V -t * -v 1.0a5 -a 0
W -t * -x 500 -y 500
A -t * -n 1 -p 0 -o 0xffffffff -c 31 -a 1
A -t * -h 1 -m 2147483647 -s 0
+ -t 15.000000000 -s 0 -d -1 -p cbr -e 512 -c 2 -a 0 -i 0 -k AGT 
- -t 15.000000000 -s 0 -d -1 -p cbr -e 512 -c 2 -a 0 -i 0 -k AGT
h -t 15.000000000 -s 0 -d -1 -p cbr -e 512 -c 2 -a 0 -i 0 -k AGT
+ -t 15.000000000 -s 1 -d -1 -p cbr -e 512 -c 2 -a 0 -i 2 -k AGT 
- -t 15.000000000 -s 1 -d -1 -p cbr -e 512 -c 2 -a 0 -i 2 -k AGT
h -t 15.000000000 -s 1 -d -1 -p cbr -e 512 -c 2 -a 0 -i 2 -k AGT
+ -t 15.000000000 -s 5 -d -1 -p cbr -e 512 -c 2 -a 0 -i 4 -k AGT 
- -t 15.000000000 -s 5 -d -1 -p cbr -e 512 -c 2 -a 0 -i 4 -k AGT
h -t 15.000000000 -s 5 -d -1 -p cbr -e 512 -c 2 -a 0 -i 4 -k AGT
+ -t 15.002575264 -s 5 -d -1 -p DSR -e 32 -c 2 -a 0 -i 5 -k RTR 
- -t 15.002575264 -s 5 -d -1 -p DSR -e 32 -c 2 -a 0 -i 5 -k RTR
h -t 15.002575264 -s 5 -d -1 -p DSR -e 32 -c 2 -a 0 -i 5 -k RTR
+ -t 15.008286208 -s 1 -d -1 -p DSR -e 32 -c 2 -a 0 -i 3 -k RTR 
- -t 15.008286208 -s 1 -d -1 -p DSR -e 32 -c 2 -a 0 -i 3 -k RTR
h -t 15.008286208 -s 1 -d -1 -p DSR -e 32 -c 2 -a 0 -i 3 -k RTR
+ -t 15.009164208 -s 0 -d -1 -p DSR -e 32 -c 2 -a 0 -i 1 -k RTR 
- -t 15.009164208 -s 0 -d -1 -p DSR -e 32 -c 2 -a 0 -i 1 -k RTR
h -t 15.009164208 -s 0 -d -1 -p DSR -e 32 -c 2 -a 0 -i 1 -k RTR
+ -t 15.065337541 -s 5 -d -1 -p DSR -e 32 -c 2 -a 0 -i 10 -k RTR 
- -t 15.065337541 -s 5 -d -1 -p DSR -e 32 -c 2 -a 0 -i 10 -k RTR
h -t 15.065337541 -s 5 -d -1 -p DSR -e 32 -c 2 -a 0 -i 10 -k RTR
+ -t 15.065844319 -s 1 -d -1 -p cbr -e 512 -c 2 -a 0 -i 12 -k AGT 
- -t 15.065844319 -s 1 -d -1 -p cbr -e 512 -c 2 -a 0 -i 12 -k AGT
h -t 15.065844319 -s 1 -d -1 -p cbr -e 512 -c 2 -a 0 -i 12 -k AGT
+ -t 15.067094445 -s 7 -d -1 -p DSR -e 48 -c 2 -a 0 -i 10 -k RTR 
- -t 15.067094445 -s 7 -d -1 -p DSR -e 48 -c 2 -a 0 -i 10 -k RTR
h -t 15.067094445 -s 7 -d -1 -p DSR -e 48 -c 2 -a 0 -i 10 -k RTR
+ -t 15.067469865 -s 1 -d -1 -p DSR -e 32 -c 2 -a 0 -i 11 -k RTR 
- -t 15.067469865 -s 1 -d -1 -p DSR -e 32 -c 2 -a 0 -i 11 -k RTR
h -t 15.067469865 -s 1 -d -1 -p DSR -e 32 -c 2 -a 0 -i 11 -k RTR
+ -t 15.067533240 -s 0 -d -1 -p DSR -e 32 -c 2 -a 0 -i 9 -k RTR 
- -t 15.067533240 -s 0 -d -1 -p DSR -e 32 -c 2 -a 0 -i 9 -k RTR
h -t 15.067533240 -s 0 -d -1 -p DSR -e 32 -c 2 -a 0 -i 9 -k RTR
+ -t 15.068914052 -s 4 -d -1 -p DSR -e 48 -c 2 -a 0 -i 10 -k RTR 
- -t 15.068914052 -s 4 -d -1 -p DSR -e 48 -c 2 -a 0 -i 10 -k RTR
h -t 15.068914052 -s 4 -d -1 -p DSR -e 48 -c 2 -a 0 -i 10 -k RTR
+ -t 15.069646810 -s 2 -d -1 -p DSR -e 48 -c 2 -a 0 -i 10 -k RTR 
- -t 15.069646810 -s 2 -d -1 -p DSR -e 48 -c 2 -a 0 -i 10 -k RTR
h -t 15.069646810 -s 2 -d -1 -p DSR -e 48 -c 2 -a 0 -i 10 -k RTR
+ -t 15.070359393 -s 1 -d -1 -p DSR -e 48 -c 2 -a 0 -i 9 -k RTR 
- -t 15.070359393 -s 1 -d -1 -p DSR -e 48 -c 2 -a 0 -i 9 -k RTR
h -t 15.070359393 -s 1 -d -1 -p DSR -e 48 -c 2 -a 0 -i 9 -k RTR
+ -t 15.071652137 -s 1 -d -1 -p DSR -e 48 -c 2 -a 0 -i 10 -k RTR 
- -t 15.071652137 -s 1 -d -1 -p DSR -e 48 -c 2 -a 0 -i 10 -k RTR
h -t 15.071652137 -s 1 -d -1 -p DSR -e 48 -c 2 -a 0 -i 10 -k RTR
+ -t 15.072520487 -s 4 -d -1 -p DSR -e 48 -c 2 -a 0 -i 9 -k RTR 
- -t 15.072520487 -s 4 -d -1 -p DSR -e 48 -c 2 -a 0 -i 9 -k RTR
h -t 15.072520487 -s 4 -d -1 -p DSR -e 48 -c 2 -a 0 -i 9 -k RTR
+ -t 15.073346055 -s 0 -d -1 -p DSR -e 68 -c 2 -a 0 -i 10 -k RTR 
- -t 15.073346055 -s 0 -d -1 -p DSR -e 68 -c 2 -a 0 -i 10 -k RTR
h -t 15.073346055 -s 0 -d -1 -p DSR -e 68 -c 2 -a 0 -i 10 -k RTR
+ -t 15.073346949 -s 6 -d -1 -p DSR -e 48 -c 2 -a 0 -i 9 -k RTR 
- -t 15.073346949 -s 6 -d -1 -p DSR -e 48 -c 2 -a 0 -i 9 -k RTR
h -t 15.073346949 -s 6 -d -1 -p DSR -e 48 -c 2 -a 0 -i 9 -k RTR
+ -t 15.073472808 -s 0 -d -1 -p DSR -e 48 -c 2 -a 0 -i 11 -k RTR 
- -t 15.073472808 -s 0 -d -1 -p DSR -e 48 -c 2 -a 0 -i 11 -k RTR
h -t 15.073472808 -s 0 -d -1 -p DSR -e 48 -c 2 -a 0 -i 11 -k RTR
+ -t 15.074386321 -s 2 -d -1 -p DSR -e 48 -c 2 -a 0 -i 11 -k RTR 
- -t 15.074386321 -s 2 -d -1 -p DSR -e 48 -c 2 -a 0 -i 11 -k RTR
h -t 15.074386321 -s 2 -d -1 -p DSR -e 48 -c 2 -a 0 -i 11 -k RTR
+ -t 15.074432452 -s 12 -d -1 -p DSR -e 48 -c 2 -a 0 -i 10 -k RTR 
- -t 15.074432452 -s 12 -d -1 -p DSR -e 48 -c 2 -a 0 -i 10 -k RTR
h -t 15.074432452 -s 12 -d -1 -p DSR -e 48 -c 2 -a 0 -i 10 -k RTR
+ -t 15.074460496 -s 6 -d 7 -p DSR -e 52 -c 2 -a 0 -i 14 -k RTR 
- -t 15.074460496 -s 6 -d 7 -p DSR -e 52 -c 2 -a 0 -i 14 -k RTR
h -t 15.074460496 -s 6 -d 7 -p DSR -e 52 -c 2 -a 0 -i 14 -k RTR
+ -t 15.075377708 -s 8 -d -1 -p DSR -e 48 -c 2 -a 0 -i 10 -k RTR 
- -t 15.075377708 -s 8 -d -1 -p DSR -e 48 -c 2 -a 0 -i 10 -k RTR
h -t 15.075377708 -s 8 -d -1 -p DSR -e 48 -c 2 -a 0 -i 10 -k RTR
+ -t 15.075473195 -s 3 -d -1 -p DSR -e 48 -c 2 -a 0 -i 9 -k RTR 
- -t 15.075473195 -s 3 -d -1 -p DSR -e 48 -c 2 -a 0 -i 9 -k RTR
h -t 15.075473195 -s 3 -d -1 -p DSR -e 48 -c 2 -a 0 -i 9 -k RTR
+ -t 15.075650474 -s 7 -d -1 -p DSR -e 68 -c 2 -a 0 -i 9 -k RTR 
- -t 15.075650474 -s 7 -d -1 -p DSR -e 68 -c 2 -a 0 -i 9 -k RTR
h -t 15.075650474 -s 7 -d -1 -p DSR -e 68 -c 2 -a 0 -i 9 -k RTR
+ -t 15.075902473 -s 5 -d -1 -p DSR -e 68 -c 2 -a 0 -i 9 -k RTR 
- -t 15.075902473 -s 5 -d -1 -p DSR -e 68 -c 2 -a 0 -i 9 -k RTR
h -t 15.075902473 -s 5 -d -1 -p DSR -e 68 -c 2 -a 0 -i 9 -k RTR
+ -t 15.075965311 -s 10 -d -1 -p DSR -e 68 -c 2 -a 0 -i 10 -k RTR 
- -t 15.075965311 -s 10 -d -1 -p DSR -e 68 -c 2 -a 0 -i 10 -k RTR
h -t 15.075965311 -s 10 -d -1 -p DSR -e 68 -c 2 -a 0 -i 10 -k RTR
+ -t 15.077111504 -s 3 -d -1 -p DSR -e 48 -c 2 -a 0 -i 11 -k RTR 
- -t 15.077111504 -s 3 -d -1 -p DSR -e 48 -c 2 -a 0 -i 11 -k RTR
h -t 15.077111504 -s 3 -d -1 -p DSR -e 48 -c 2 -a 0 -i 11 -k RTR
+ -t 15.077558997 -s 3 -d -1 -p DSR -e 68 -c 2 -a 0 -i 10 -k RTR 
- -t 15.077558997 -s 3 -d -1 -p DSR -e 68 -c 2 -a 0 -i 10 -k RTR
h -t 15.077558997 -s 3 -d -1 -p DSR -e 68 -c 2 -a 0 -i 10 -k RTR
+ -t 15.077782452 -s 5 -d -1 -p DSR -e 48 -c 2 -a 0 -i 11 -k RTR 
- -t 15.077782452 -s 5 -d -1 -p DSR -e 48 -c 2 -a 0 -i 11 -k RTR
h -t 15.077782452 -s 5 -d -1 -p DSR -e 48 -c 2 -a 0 -i 11 -k RTR
+ -t 15.078617596 -s 7 -d -1 -p DSR -e 48 -c 2 -a 0 -i 11 -k RTR 
- -t 15.078617596 -s 7 -d -1 -p DSR -e 48 -c 2 -a 0 -i 11 -k RTR
h -t 15.078617596 -s 7 -d -1 -p DSR -e 48 -c 2 -a 0 -i 11 -k RTR
+ -t 15.078785591 -s 2 -d -1 -p DSR -e 68 -c 2 -a 0 -i 9 -k RTR 
- -t 15.078785591 -s 2 -d -1 -p DSR -e 68 -c 2 -a 0 -i 9 -k RTR
h -t 15.078785591 -s 2 -d -1 -p DSR -e 68 -c 2 -a 0 -i 9 -k RTR
+ -t 15.078951334 -s 4 -d -1 -p DSR -e 48 -c 2 -a 0 -i 11 -k RTR 
- -t 15.078951334 -s 4 -d -1 -p DSR -e 48 -c 2 -a 0 -i 11 -k RTR
h -t 15.078951334 -s 4 -d -1 -p DSR -e 48 -c 2 -a 0 -i 11 -k RTR
+ -t 15.080444109 -s 6 -d 4 -p DSR -e 52 -c 2 -a 0 -i 15 -k RTR 
- -t 15.080444109 -s 6 -d 4 -p DSR -e 52 -c 2 -a 0 -i 15 -k RTR
h -t 15.080444109 -s 6 -d 4 -p DSR -e 52 -c 2 -a 0 -i 15 -k RTR
+ -t 15.081141988 -s 11 -d -1 -p DSR -e 68 -c 2 -a 0 -i 10 -k RTR 
- -t 15.081141988 -s 11 -d -1 -p DSR -e 68 -c 2 -a 0 -i 10 -k RTR
h -t 15.081141988 -s 11 -d -1 -p DSR -e 68 -c 2 -a 0 -i 10 -k RTR
+ -t 15.081408635 -s 8 -d -1 -p DSR -e 68 -c 2 -a 0 -i 9 -k RTR 
- -t 15.081408635 -s 8 -d -1 -p DSR -e 68 -c 2 -a 0 -i 9 -k RTR
h -t 15.081408635 -s 8 -d -1 -p DSR -e 68 -c 2 -a 0 -i 9 -k RTR
+ -t 15.082537611 -s 12 -d -1 -p DSR -e 92 -c 2 -a 0 -i 9 -k RTR 
- -t 15.082537611 -s 12 -d -1 -p DSR -e 92 -c 2 -a 0 -i 9 -k RTR
h -t 15.082537611 -s 12 -d -1 -p DSR -e 92 -c 2 -a 0 -i 9 -k RTR
+ -t 15.082947352 -s 12 -d -1 -p DSR -e 68 -c 2 -a 0 -i 11 -k RTR 
- -t 15.082947352 -s 12 -d -1 -p DSR -e 68 -c 2 -a 0 -i 11 -k RTR
h -t 15.082947352 -s 12 -d -1 -p DSR -e 68 -c 2 -a 0 -i 11 -k RTR
+ -t 15.085668116 -s 8 -d -1 -p DSR -e 68 -c 2 -a 0 -i 11 -k RTR 
- -t 15.085668116 -s 8 -d -1 -p DSR -e 68 -c 2 -a 0 -i 11 -k RTR
h -t 15.085668116 -s 8 -d -1 -p DSR -e 68 -c 2 -a 0 -i 11 -k RTR
+ -t 15.088045057 -s 0 -d -1 -p cbr -e 512 -c 2 -a 0 -i 18 -k AGT 
- -t 15.088045057 -s 0 -d -1 -p cbr -e 512 -c 2 -a 0 -i 18 -k AGT
h -t 15.088045057 -s 0 -d -1 -p cbr -e 512 -c 2 -a 0 -i 18 -k AGT
+ -t 15.088928325 -s 10 -d 7 -p DSR -e 60 -c 2 -a 0 -i 16 -k RTR 
- -t 15.088928325 -s 10 -d 7 -p DSR -e 60 -c 2 -a 0 -i 16 -k RTR
h -t 15.088928325 -s 10 -d 7 -p DSR -e 60 -c 2 -a 0 -i 16 -k RTR
+ -t 15.091169839 -s 6 -d -1 -p DSR -e 68 -c 2 -a 0 -i 11 -k RTR 
- -t 15.091169839 -s 6 -d -1 -p DSR -e 68 -c 2 -a 0 -i 11 -k RTR
h -t 15.091169839 -s 6 -d -1 -p DSR -e 68 -c 2 -a 0 -i 11 -k RTR
+ -t 15.091287153 -s 4 -d 5 -p DSR -e 52 -c 2 -a 0 -i 15 -k RTR 
- -t 15.091287153 -s 4 -d 5 -p DSR -e 52 -c 2 -a 0 -i 15 -k RTR
h -t 15.091287153 -s 4 -d 5 -p DSR -e 52 -c 2 -a 0 -i 15 -k RTR
+ -t 15.093585699 -s 6 -d 3 -p DSR -e 60 -c 2 -a 0 -i 20 -k RTR 
- -t 15.093585699 -s 6 -d 3 -p DSR -e 60 -c 2 -a 0 -i 20 -k RTR
h -t 15.093585699 -s 6 -d 3 -p DSR -e 60 -c 2 -a 0 -i 20 -k RTR
+ -t 15.093586478 -s 10 -d 12 -p DSR -e 68 -c 2 -a 0 -i 17 -k RTR 
- -t 15.093586478 -s 10 -d 12 -p DSR -e 68 -c 2 -a 0 -i 17 -k RTR
h -t 15.093586478 -s 10 -d 12 -p DSR -e 68 -c 2 -a 0 -i 17 -k RTR
+ -t 15.094226382 -s 9 -d -1 -p DSR -e 68 -c 2 -a 0 -i 9 -k RTR 
- -t 15.094226382 -s 9 -d -1 -p DSR -e 68 -c 2 -a 0 -i 9 -k RTR
h -t 15.094226382 -s 9 -d -1 -p DSR -e 68 -c 2 -a 0 -i 9 -k RTR
+ -t 15.094417388 -s 11 -d -1 -p DSR -e 92 -c 2 -a 0 -i 9 -k RTR 
- -t 15.094417388 -s 11 -d -1 -p DSR -e 92 -c 2 -a 0 -i 9 -k RTR
h -t 15.094417388 -s 11 -d -1 -p DSR -e 92 -c 2 -a 0 -i 9 -k RTR
+ -t 15.097328784 -s 10 -d 12 -p DSR -e 60 -c 2 -a 0 -i 23 -k RTR 
- -t 15.097328784 -s 10 -d 12 -p DSR -e 60 -c 2 -a 0 -i 23 -k RTR
h -t 15.097328784 -s 10 -d 12 -p DSR -e 60 -c 2 -a 0 -i 23 -k RTR
+ -t 15.098029389 -s 9 -d 10 -p DSR -e 64 -c 2 -a 0 -i 24 -k RTR 
- -t 15.098029389 -s 9 -d 10 -p DSR -e 64 -c 2 -a 0 -i 24 -k RTR
h -t 15.098029389 -s 9 -d 10 -p DSR -e 64 -c 2 -a 0 -i 24 -k RTR
+ -t 15.099808693 -s 11 -d -1 -p DSR -e 92 -c 2 -a 0 -i 11 -k RTR 
- -t 15.099808693 -s 11 -d -1 -p DSR -e 92 -c 2 -a 0 -i 11 -k RTR
h -t 15.099808693 -s 11 -d -1 -p DSR -e 92 -c 2 -a 0 -i 11 -k RTR
+ -t 15.103669625 -s 12 -d 5 -p DSR -e 60 -c 2 -a 0 -i 23 -k RTR 
- -t 15.103669625 -s 12 -d 5 -p DSR -e 60 -c 2 -a 0 -i 23 -k RTR
h -t 15.103669625 -s 12 -d 5 -p DSR -e 60 -c 2 -a 0 -i 23 -k RTR
+ -t 15.104576195 -s 10 -d 11 -p DSR -e 68 -c 2 -a 0 -i 25 -k RTR 
- -t 15.104576195 -s 10 -d 11 -p DSR -e 68 -c 2 -a 0 -i 25 -k RTR
h -t 15.104576195 -s 10 -d 11 -p DSR -e 68 -c 2 -a 0 -i 25 -k RTR
+ -t 15.105967625 -s 5 -d 1 -p DSR -e 60 -c 2 -a 0 -i 23 -k RTR 
- -t 15.105967625 -s 5 -d 1 -p DSR -e 60 -c 2 -a 0 -i 23 -k RTR
h -t 15.105967625 -s 5 -d 1 -p DSR -e 60 -c 2 -a 0 -i 23 -k RTR
+ -t 15.107602516 -s 10 -d 11 -p DSR -e 68 -c 2 -a 0 -i 29 -k RTR 
- -t 15.107602516 -s 10 -d 11 -p DSR -e 68 -c 2 -a 0 -i 29 -k RTR
h -t 15.107602516 -s 10 -d 11 -p DSR -e 68 -c 2 -a 0 -i 29 -k RTR
+ -t 15.108085861 -s 1 -d 5 -p cbr -e 556 -c 2 -a 0 -i 2 -k RTR 
- -t 15.108085861 -s 1 -d 5 -p cbr -e 556 -c 2 -a 0 -i 2 -k RTR
h -t 15.108085861 -s 1 -d 5 -p cbr -e 556 -c 2 -a 0 -i 2 -k RTR
+ -t 15.114152097 -s 5 -d 12 -p cbr -e 556 -c 2 -a 0 -i 2 -k RTR 
- -t 15.114152097 -s 5 -d 12 -p cbr -e 556 -c 2 -a 0 -i 2 -k RTR
h -t 15.114152097 -s 5 -d 12 -p cbr -e 556 -c 2 -a 0 -i 2 -k RTR
+ -t 15.116166764 -s 5 -d 4 -p cbr -e 552 -c 2 -a 0 -i 4 -k RTR 
- -t 15.116166764 -s 5 -d 4 -p cbr -e 552 -c 2 -a 0 -i 4 -k RTR
h -t 15.116166764 -s 5 -d 4 -p cbr -e 552 -c 2 -a 0 -i 4 -k RTR
+ -t 15.120905830 -s 5 -d -1 -p cbr -e 512 -c 2 -a 0 -i 30 -k AGT 
- -t 15.120905830 -s 5 -d -1 -p cbr -e 512 -c 2 -a 0 -i 30 -k AGT
h -t 15.120905830 -s 5 -d -1 -p cbr -e 512 -c 2 -a 0 -i 30 -k AGT
+ -t 15.120905830 -s 5 -d 4 -p cbr -e 552 -c 2 -a 0 -i 30 -k RTR 
- -t 15.120905830 -s 5 -d 4 -p cbr -e 552 -c 2 -a 0 -i 30 -k RTR
h -t 15.120905830 -s 5 -d 4 -p cbr -e 552 -c 2 -a 0 -i 30 -k RTR
+ -t 15.122212764 -s 12 -d 10 -p cbr -e 556 -c 2 -a 0 -i 2 -k RTR 
- -t 15.122212764 -s 12 -d 10 -p cbr -e 556 -c 2 -a 0 -i 2 -k RTR
h -t 15.122212764 -s 12 -d 10 -p cbr -e 556 -c 2 -a 0 -i 2 -k RTR
+ -t 15.128227431 -s 4 -d 6 -p cbr -e 552 -c 2 -a 0 -i 4 -k RTR 
- -t 15.128227431 -s 4 -d 6 -p cbr -e 552 -c 2 -a 0 -i 4 -k RTR
h -t 15.128227431 -s 4 -d 6 -p cbr -e 552 -c 2 -a 0 -i 4 -k RTR
+ -t 15.130292138 -s 7 -d 5 -p DSR -e 52 -c 2 -a 0 -i 14 -k RTR 
- -t 15.130292138 -s 7 -d 5 -p DSR -e 52 -c 2 -a 0 -i 14 -k RTR
h -t 15.130292138 -s 7 -d 5 -p DSR -e 52 -c 2 -a 0 -i 14 -k RTR
r -t 15.136289082 -s 10 -d 10 -p cbr -e 512 -c 2 -a 0 -i 2 -k AGT
+ -t 15.138085861 -s 1 -d 5 -p cbr -e 556 -c 2 -a 0 -i 12 -k RTR 
- -t 15.138085861 -s 1 -d 5 -p cbr -e 556 -c 2 -a 0 -i 12 -k RTR
h -t 15.138085861 -s 1 -d 5 -p cbr -e 556 -c 2 -a 0 -i 12 -k RTR
+ -t 15.138411318 -s 12 -d 5 -p DSR -e 68 -c 2 -a 0 -i 17 -k RTR 
- -t 15.138411318 -s 12 -d 5 -p DSR -e 68 -c 2 -a 0 -i 17 -k RTR
h -t 15.138411318 -s 12 -d 5 -p DSR -e 68 -c 2 -a 0 -i 17 -k RTR
+ -t 15.140433318 -s 5 -d 1 -p DSR -e 68 -c 2 -a 0 -i 17 -k RTR 
- -t 15.140433318 -s 5 -d 1 -p DSR -e 68 -c 2 -a 0 -i 17 -k RTR
h -t 15.140433318 -s 5 -d 1 -p DSR -e 68 -c 2 -a 0 -i 17 -k RTR
+ -t 15.146490089 -s 5 -d 12 -p cbr -e 556 -c 2 -a 0 -i 12 -k RTR 
- -t 15.146490089 -s 5 -d 12 -p cbr -e 556 -c 2 -a 0 -i 12 -k RTR
h -t 15.146490089 -s 5 -d 12 -p cbr -e 556 -c 2 -a 0 -i 12 -k RTR
r -t 15.152464992 -s 6 -d 6 -p cbr -e 512 -c 2 -a 0 -i 4 -k AGT
+ -t 15.154441992 -s 3 -d 7 -p DSR -e 60 -c 2 -a 0 -i 20 -k RTR 
- -t 15.154441992 -s 3 -d 7 -p DSR -e 60 -c 2 -a 0 -i 20 -k RTR
h -t 15.154441992 -s 3 -d 7 -p DSR -e 60 -c 2 -a 0 -i 20 -k RTR
+ -t 15.156420228 -s 7 -d 5 -p DSR -e 60 -c 2 -a 0 -i 20 -k RTR 
- -t 15.156420228 -s 7 -d 5 -p DSR -e 60 -c 2 -a 0 -i 20 -k RTR
h -t 15.156420228 -s 7 -d 5 -p DSR -e 60 -c 2 -a 0 -i 20 -k RTR
+ -t 15.159646883 -s 0 -d 1 -p cbr -e 560 -c 2 -a 0 -i 0 -k RTR 
- -t 15.159646883 -s 0 -d 1 -p cbr -e 560 -c 2 -a 0 -i 0 -k RTR
h -t 15.159646883 -s 0 -d 1 -p cbr -e 560 -c 2 -a 0 -i 0 -k RTR
+ -t 15.159646883 -s 0 -d 1 -p cbr -e 560 -c 2 -a 0 -i 18 -k RTR 
- -t 15.159646883 -s 0 -d 1 -p cbr -e 560 -c 2 -a 0 -i 18 -k RTR
h -t 15.159646883 -s 0 -d 1 -p cbr -e 560 -c 2 -a 0 -i 18 -k RTR
+ -t 15.164348464 -s 4 -d 6 -p cbr -e 552 -c 2 -a 0 -i 30 -k RTR 
- -t 15.164348464 -s 4 -d 6 -p cbr -e 552 -c 2 -a 0 -i 30 -k RTR
h -t 15.164348464 -s 4 -d 6 -p cbr -e 552 -c 2 -a 0 -i 30 -k RTR
+ -t 15.166351367 -s 1 -d 0 -p DSR -e 68 -c 2 -a 0 -i 17 -k RTR 
- -t 15.166351367 -s 1 -d 0 -p DSR -e 68 -c 2 -a 0 -i 17 -k RTR
h -t 15.166351367 -s 1 -d 0 -p DSR -e 68 -c 2 -a 0 -i 17 -k RTR
+ -t 15.174376270 -s 12 -d 10 -p cbr -e 556 -c 2 -a 0 -i 12 -k RTR 
- -t 15.174376270 -s 12 -d 10 -p cbr -e 556 -c 2 -a 0 -i 12 -k RTR
h -t 15.174376270 -s 12 -d 10 -p cbr -e 556 -c 2 -a 0 -i 12 -k RTR
+ -t 15.179987686 -s 5 -d -1 -p cbr -e 512 -c 2 -a 0 -i 31 -k AGT 
- -t 15.179987686 -s 5 -d -1 -p cbr -e 512 -c 2 -a 0 -i 31 -k AGT
h -t 15.179987686 -s 5 -d -1 -p cbr -e 512 -c 2 -a 0 -i 31 -k AGT
+ -t 15.179987686 -s 5 -d 4 -p cbr -e 552 -c 2 -a 0 -i 31 -k RTR 
- -t 15.179987686 -s 5 -d 4 -p cbr -e 552 -c 2 -a 0 -i 31 -k RTR
h -t 15.179987686 -s 5 -d 4 -p cbr -e 552 -c 2 -a 0 -i 31 -k RTR
r -t 15.180322506 -s 10 -d 10 -p cbr -e 512 -c 2 -a 0 -i 12 -k AGT
+ -t 15.182664506 -s 11 -d 12 -p DSR -e 68 -c 2 -a 0 -i 29 -k RTR 
- -t 15.182664506 -s 11 -d 12 -p DSR -e 68 -c 2 -a 0 -i 29 -k RTR
h -t 15.182664506 -s 11 -d 12 -p DSR -e 68 -c 2 -a 0 -i 29 -k RTR
+ -t 15.185613173 -s 11 -d 8 -p DSR -e 68 -c 2 -a 0 -i 25 -k RTR 
- -t 15.185613173 -s 11 -d 8 -p DSR -e 68 -c 2 -a 0 -i 25 -k RTR
h -t 15.185613173 -s 11 -d 8 -p DSR -e 68 -c 2 -a 0 -i 25 -k RTR
+ -t 15.186701767 -s 0 -d -1 -p cbr -e 512 -c 2 -a 0 -i 32 -k AGT 
- -t 15.186701767 -s 0 -d -1 -p cbr -e 512 -c 2 -a 0 -i 32 -k AGT
h -t 15.186701767 -s 0 -d -1 -p cbr -e 512 -c 2 -a 0 -i 32 -k AGT
+ -t 15.186701767 -s 0 -d 1 -p cbr -e 560 -c 2 -a 0 -i 32 -k RTR 
- -t 15.186701767 -s 0 -d 1 -p cbr -e 560 -c 2 -a 0 -i 32 -k RTR
h -t 15.186701767 -s 0 -d 1 -p cbr -e 560 -c 2 -a 0 -i 32 -k RTR
+ -t 15.187671839 -s 7 -d 1 -p DSR -e 60 -c 2 -a 0 -i 16 -k RTR 
- -t 15.187671839 -s 7 -d 1 -p DSR -e 60 -c 2 -a 0 -i 16 -k RTR
h -t 15.187671839 -s 7 -d 1 -p DSR -e 60 -c 2 -a 0 -i 16 -k RTR
+ -t 15.192089374 -s 10 -d 7 -p DSR -e 64 -c 2 -a 0 -i 24 -k RTR 
- -t 15.192089374 -s 10 -d 7 -p DSR -e 64 -c 2 -a 0 -i 24 -k RTR
h -t 15.192089374 -s 10 -d 7 -p DSR -e 64 -c 2 -a 0 -i 24 -k RTR
+ -t 15.197116914 -s 10 -d 9 -p DSR -e 60 -c 2 -a 0 -i 33 -k RTR 
- -t 15.197116914 -s 10 -d 9 -p DSR -e 60 -c 2 -a 0 -i 33 -k RTR
h -t 15.197116914 -s 10 -d 9 -p DSR -e 60 -c 2 -a 0 -i 33 -k RTR
r -t 15.199010610 -s 6 -d 6 -p cbr -e 512 -c 2 -a 0 -i 30 -k AGT
+ -t 15.200969277 -s 1 -d 0 -p DSR -e 60 -c 2 -a 0 -i 16 -k RTR 
- -t 15.200969277 -s 1 -d 0 -p DSR -e 60 -c 2 -a 0 -i 16 -k RTR
h -t 15.200969277 -s 1 -d 0 -p DSR -e 60 -c 2 -a 0 -i 16 -k RTR
+ -t 15.201770404 -s 1 -d -1 -p cbr -e 512 -c 2 -a 0 -i 34 -k AGT 
- -t 15.201770404 -s 1 -d -1 -p cbr -e 512 -c 2 -a 0 -i 34 -k AGT
h -t 15.201770404 -s 1 -d -1 -p cbr -e 512 -c 2 -a 0 -i 34 -k AGT
+ -t 15.201770404 -s 1 -d 5 -p cbr -e 556 -c 2 -a 0 -i 34 -k RTR 
- -t 15.201770404 -s 1 -d 5 -p cbr -e 556 -c 2 -a 0 -i 34 -k RTR
h -t 15.201770404 -s 1 -d 5 -p cbr -e 556 -c 2 -a 0 -i 34 -k RTR
+ -t 15.206864022 -s 4 -d 6 -p cbr -e 552 -c 2 -a 0 -i 31 -k RTR 
- -t 15.206864022 -s 4 -d 6 -p cbr -e 552 -c 2 -a 0 -i 31 -k RTR
h -t 15.206864022 -s 4 -d 6 -p cbr -e 552 -c 2 -a 0 -i 31 -k RTR
r -t 15.217120004 -s 6 -d 6 -p cbr -e 512 -c 2 -a 0 -i 31 -k AGT
+ -t 15.220622161 -s 7 -d 5 -p DSR -e 64 -c 2 -a 0 -i 24 -k RTR 
- -t 15.220622161 -s 7 -d 5 -p DSR -e 64 -c 2 -a 0 -i 24 -k RTR
h -t 15.220622161 -s 7 -d 5 -p DSR -e 64 -c 2 -a 0 -i 24 -k RTR
+ -t 15.228759379 -s 5 -d 12 -p cbr -e 556 -c 2 -a 0 -i 34 -k RTR 
- -t 15.228759379 -s 5 -d 12 -p cbr -e 556 -c 2 -a 0 -i 34 -k RTR
h -t 15.228759379 -s 5 -d 12 -p cbr -e 556 -c 2 -a 0 -i 34 -k RTR
+ -t 15.231162581 -s 9 -d 6 -p DSR -e 60 -c 2 -a 0 -i 33 -k RTR 
- -t 15.231162581 -s 9 -d 6 -p DSR -e 60 -c 2 -a 0 -i 33 -k RTR
h -t 15.231162581 -s 9 -d 6 -p DSR -e 60 -c 2 -a 0 -i 33 -k RTR
+ -t 15.233480581 -s 6 -d 0 -p DSR -e 60 -c 2 -a 0 -i 33 -k RTR 
- -t 15.233480581 -s 6 -d 0 -p DSR -e 60 -c 2 -a 0 -i 33 -k RTR
h -t 15.233480581 -s 6 -d 0 -p DSR -e 60 -c 2 -a 0 -i 33 -k RTR
+ -t 15.234300325 -s 5 -d -1 -p cbr -e 512 -c 2 -a 0 -i 35 -k AGT 
- -t 15.234300325 -s 5 -d -1 -p cbr -e 512 -c 2 -a 0 -i 35 -k AGT
h -t 15.234300325 -s 5 -d -1 -p cbr -e 512 -c 2 -a 0 -i 35 -k AGT
+ -t 15.234300325 -s 5 -d 4 -p cbr -e 532 -c 2 -a 0 -i 35 -k RTR 
- -t 15.234300325 -s 5 -d 4 -p cbr -e 532 -c 2 -a 0 -i 35 -k RTR
h -t 15.234300325 -s 5 -d 4 -p cbr -e 532 -c 2 -a 0 -i 35 -k RTR
+ -t 15.241636581 -s 1 -d 5 -p cbr -e 560 -c 2 -a 0 -i 0 -k RTR 
- -t 15.241636581 -s 1 -d 5 -p cbr -e 560 -c 2 -a 0 -i 0 -k RTR
h -t 15.241636581 -s 1 -d 5 -p cbr -e 560 -c 2 -a 0 -i 0 -k RTR
+ -t 15.247733288 -s 12 -d 10 -p cbr -e 556 -c 2 -a 0 -i 34 -k RTR 
- -t 15.247733288 -s 12 -d 10 -p cbr -e 556 -c 2 -a 0 -i 34 -k RTR
h -t 15.247733288 -s 12 -d 10 -p cbr -e 556 -c 2 -a 0 -i 34 -k RTR
r -t 15.253659524 -s 10 -d 10 -p cbr -e 512 -c 2 -a 0 -i 34 -k AGT
+ -t 15.260243015 -s 1 -d 5 -p cbr -e 560 -c 2 -a 0 -i 18 -k RTR 
- -t 15.260243015 -s 1 -d 5 -p cbr -e 560 -c 2 -a 0 -i 18 -k RTR
h -t 15.260243015 -s 1 -d 5 -p cbr -e 560 -c 2 -a 0 -i 18 -k RTR
+ -t 15.266047723 -s 4 -d 6 -p cbr -e 532 -c 2 -a 0 -i 35 -k RTR 
- -t 15.266047723 -s 4 -d 6 -p cbr -e 532 -c 2 -a 0 -i 35 -k RTR
h -t 15.266047723 -s 4 -d 6 -p cbr -e 532 -c 2 -a 0 -i 35 -k RTR
+ -t 15.272006292 -s 5 -d 12 -p cbr -e 560 -c 2 -a 0 -i 0 -k RTR 
- -t 15.272006292 -s 5 -d 12 -p cbr -e 560 -c 2 -a 0 -i 0 -k RTR
h -t 15.272006292 -s 5 -d 12 -p cbr -e 560 -c 2 -a 0 -i 0 -k RTR
+ -t 15.277985274 -s 5 -d 12 -p cbr -e 560 -c 2 -a 0 -i 18 -k RTR 
- -t 15.277985274 -s 5 -d 12 -p cbr -e 560 -c 2 -a 0 -i 18 -k RTR
h -t 15.277985274 -s 5 -d 12 -p cbr -e 560 -c 2 -a 0 -i 18 -k RTR
+ -t 15.283963274 -s 12 -d 10 -p cbr -e 560 -c 2 -a 0 -i 0 -k RTR 
- -t 15.283963274 -s 12 -d 10 -p cbr -e 560 -c 2 -a 0 -i 0 -k RTR
h -t 15.283963274 -s 12 -d 10 -p cbr -e 560 -c 2 -a 0 -i 0 -k RTR
r -t 15.290281510 -s 10 -d 10 -p cbr -e 512 -c 2 -a 0 -i 0 -k AGT
+ -t 15.292443176 -s 12 -d 5 -p DSR -e 68 -c 2 -a 0 -i 29 -k RTR 
- -t 15.292443176 -s 12 -d 5 -p DSR -e 68 -c 2 -a 0 -i 29 -k RTR
h -t 15.292443176 -s 12 -d 5 -p DSR -e 68 -c 2 -a 0 -i 29 -k RTR
+ -t 15.294673843 -s 5 -d 1 -p DSR -e 68 -c 2 -a 0 -i 29 -k RTR 
- -t 15.294673843 -s 5 -d 1 -p DSR -e 68 -c 2 -a 0 -i 29 -k RTR
h -t 15.294673843 -s 5 -d 1 -p DSR -e 68 -c 2 -a 0 -i 29 -k RTR
+ -t 15.300731843 -s 12 -d 10 -p cbr -e 560 -c 2 -a 0 -i 18 -k RTR 
- -t 15.300731843 -s 12 -d 10 -p cbr -e 560 -c 2 -a 0 -i 18 -k RTR
h -t 15.300731843 -s 12 -d 10 -p cbr -e 560 -c 2 -a 0 -i 18 -k RTR
+ -t 15.307275510 -s 1 -d 5 -p cbr -e 560 -c 2 -a 0 -i 32 -k RTR 
- -t 15.307275510 -s 1 -d 5 -p cbr -e 560 -c 2 -a 0 -i 32 -k RTR
h -t 15.307275510 -s 1 -d 5 -p cbr -e 560 -c 2 -a 0 -i 32 -k RTR
+ -t 15.309286321 -s 1 -d -1 -p cbr -e 512 -c 2 -a 0 -i 36 -k AGT 
- -t 15.309286321 -s 1 -d -1 -p cbr -e 512 -c 2 -a 0 -i 36 -k AGT
h -t 15.309286321 -s 1 -d -1 -p cbr -e 512 -c 2 -a 0 -i 36 -k AGT
+ -t 15.309286321 -s 1 -d 5 -p cbr -e 532 -c 2 -a 0 -i 36 -k RTR 
- -t 15.309286321 -s 1 -d 5 -p cbr -e 532 -c 2 -a 0 -i 36 -k RTR
h -t 15.309286321 -s 1 -d 5 -p cbr -e 532 -c 2 -a 0 -i 36 -k RTR
+ -t 15.313273746 -s 5 -d 12 -p cbr -e 560 -c 2 -a 0 -i 32 -k RTR 
- -t 15.313273746 -s 5 -d 12 -p cbr -e 560 -c 2 -a 0 -i 32 -k RTR
h -t 15.313273746 -s 5 -d 12 -p cbr -e 560 -c 2 -a 0 -i 32 -k RTR
+ -t 15.313920258 -s 0 -d -1 -p cbr -e 512 -c 2 -a 0 -i 37 -k AGT 
- -t 15.313920258 -s 0 -d -1 -p cbr -e 512 -c 2 -a 0 -i 37 -k AGT
h -t 15.313920258 -s 0 -d -1 -p cbr -e 512 -c 2 -a 0 -i 37 -k AGT
+ -t 15.313920258 -s 0 -d 1 -p cbr -e 556 -c 2 -a 0 -i 37 -k RTR 
- -t 15.313920258 -s 0 -d 1 -p cbr -e 556 -c 2 -a 0 -i 37 -k RTR
h -t 15.313920258 -s 0 -d 1 -p cbr -e 556 -c 2 -a 0 -i 37 -k RTR
+ -t 15.321110218 -s 5 -d 12 -p cbr -e 532 -c 2 -a 0 -i 36 -k RTR 
- -t 15.321110218 -s 5 -d 12 -p cbr -e 532 -c 2 -a 0 -i 36 -k RTR
h -t 15.321110218 -s 5 -d 12 -p cbr -e 532 -c 2 -a 0 -i 36 -k RTR
+ -t 15.327188218 -s 12 -d 10 -p cbr -e 560 -c 2 -a 0 -i 32 -k RTR 
- -t 15.327188218 -s 12 -d 10 -p cbr -e 560 -c 2 -a 0 -i 32 -k RTR
h -t 15.327188218 -s 12 -d 10 -p cbr -e 560 -c 2 -a 0 -i 32 -k RTR
r -t 15.333146454 -s 10 -d 10 -p cbr -e 512 -c 2 -a 0 -i 18 -k AGT
r -t 15.339385690 -s 6 -d 6 -p cbr -e 512 -c 2 -a 0 -i 35 -k AGT
+ -t 15.345532357 -s 1 -d 7 -p cbr -e 556 -c 2 -a 0 -i 37 -k RTR 
- -t 15.345532357 -s 1 -d 7 -p cbr -e 556 -c 2 -a 0 -i 37 -k RTR
h -t 15.345532357 -s 1 -d 7 -p cbr -e 556 -c 2 -a 0 -i 37 -k RTR
+ -t 15.349156955 -s 5 -d -1 -p cbr -e 512 -c 2 -a 0 -i 38 -k AGT 
- -t 15.349156955 -s 5 -d -1 -p cbr -e 512 -c 2 -a 0 -i 38 -k AGT
h -t 15.349156955 -s 5 -d -1 -p cbr -e 512 -c 2 -a 0 -i 38 -k AGT
+ -t 15.349156955 -s 5 -d 4 -p cbr -e 532 -c 2 -a 0 -i 38 -k RTR 
- -t 15.349156955 -s 5 -d 4 -p cbr -e 532 -c 2 -a 0 -i 38 -k RTR
h -t 15.349156955 -s 5 -d 4 -p cbr -e 532 -c 2 -a 0 -i 38 -k RTR
+ -t 15.351718357 -s 7 -d 10 -p cbr -e 556 -c 2 -a 0 -i 37 -k RTR 
- -t 15.351718357 -s 7 -d 10 -p cbr -e 556 -c 2 -a 0 -i 37 -k RTR
h -t 15.351718357 -s 7 -d 10 -p cbr -e 556 -c 2 -a 0 -i 37 -k RTR
r -t 15.357727128 -s 10 -d 10 -p cbr -e 512 -c 2 -a 0 -i 32 -k AGT
r -t 15.363833795 -s 10 -d 10 -p cbr -e 512 -c 2 -a 0 -i 37 -k AGT
+ -t 15.370052996 -s 12 -d 10 -p cbr -e 532 -c 2 -a 0 -i 36 -k RTR 
- -t 15.370052996 -s 12 -d 10 -p cbr -e 532 -c 2 -a 0 -i 36 -k RTR
h -t 15.370052996 -s 12 -d 10 -p cbr -e 532 -c 2 -a 0 -i 36 -k RTR
+ -t 15.375987663 -s 4 -d 6 -p cbr -e 532 -c 2 -a 0 -i 38 -k RTR 
- -t 15.375987663 -s 4 -d 6 -p cbr -e 532 -c 2 -a 0 -i 38 -k RTR
h -t 15.375987663 -s 4 -d 6 -p cbr -e 532 -c 2 -a 0 -i 38 -k RTR
+ -t 15.378610327 -s 0 -d -1 -p cbr -e 512 -c 2 -a 0 -i 39 -k AGT 
- -t 15.378610327 -s 0 -d -1 -p cbr -e 512 -c 2 -a 0 -i 39 -k AGT
h -t 15.378610327 -s 0 -d -1 -p cbr -e 512 -c 2 -a 0 -i 39 -k AGT
+ -t 15.378610327 -s 0 -d 1 -p cbr -e 556 -c 2 -a 0 -i 39 -k RTR 
- -t 15.378610327 -s 0 -d 1 -p cbr -e 556 -c 2 -a 0 -i 39 -k RTR
h -t 15.378610327 -s 0 -d 1 -p cbr -e 556 -c 2 -a 0 -i 39 -k RTR
r -t 15.381941899 -s 6 -d 6 -p cbr -e 512 -c 2 -a 0 -i 38 -k AGT
+ -t 15.388048566 -s 1 -d 7 -p cbr -e 556 -c 2 -a 0 -i 39 -k RTR 
- -t 15.388048566 -s 1 -d 7 -p cbr -e 556 -c 2 -a 0 -i 39 -k RTR
h -t 15.388048566 -s 1 -d 7 -p cbr -e 556 -c 2 -a 0 -i 39 -k RTR
r -t 15.394268004 -s 10 -d 10 -p cbr -e 512 -c 2 -a 0 -i 36 -k AGT
+ -t 15.400579337 -s 7 -d 10 -p cbr -e 556 -c 2 -a 0 -i 39 -k RTR 
- -t 15.400579337 -s 7 -d 10 -p cbr -e 556 -c 2 -a 0 -i 39 -k RTR
h -t 15.400579337 -s 7 -d 10 -p cbr -e 556 -c 2 -a 0 -i 39 -k RTR
r -t 15.406585337 -s 10 -d 10 -p cbr -e 512 -c 2 -a 0 -i 39 -k AGT
+ -t 15.428297613 -s 8 -d 4 -p DSR -e 68 -c 2 -a 0 -i 25 -k RTR 
- -t 15.428297613 -s 8 -d 4 -p DSR -e 68 -c 2 -a 0 -i 25 -k RTR
h -t 15.428297613 -s 8 -d 4 -p DSR -e 68 -c 2 -a 0 -i 25 -k RTR
+ -t 15.430299849 -s 4 -d 0 -p DSR -e 68 -c 2 -a 0 -i 25 -k RTR 
- -t 15.430299849 -s 4 -d 0 -p DSR -e 68 -c 2 -a 0 -i 25 -k RTR
h -t 15.430299849 -s 4 -d 0 -p DSR -e 68 -c 2 -a 0 -i 25 -k RTR
+ -t 15.441417550 -s 1 -d -1 -p cbr -e 512 -c 2 -a 0 -i 40 -k AGT 
- -t 15.441417550 -s 1 -d -1 -p cbr -e 512 -c 2 -a 0 -i 40 -k AGT
h -t 15.441417550 -s 1 -d -1 -p cbr -e 512 -c 2 -a 0 -i 40 -k AGT
+ -t 15.441417550 -s 1 -d 7 -p cbr -e 552 -c 2 -a 0 -i 40 -k RTR 
- -t 15.441417550 -s 1 -d 7 -p cbr -e 552 -c 2 -a 0 -i 40 -k RTR
h -t 15.441417550 -s 1 -d 7 -p cbr -e 552 -c 2 -a 0 -i 40 -k RTR
+ -t 15.447215381 -s 5 -d -1 -p cbr -e 512 -c 2 -a 0 -i 41 -k AGT 
- -t 15.447215381 -s 5 -d -1 -p cbr -e 512 -c 2 -a 0 -i 41 -k AGT
h -t 15.447215381 -s 5 -d -1 -p cbr -e 512 -c 2 -a 0 -i 41 -k AGT
+ -t 15.447215381 -s 5 -d 4 -p cbr -e 532 -c 2 -a 0 -i 41 -k RTR 
- -t 15.447215381 -s 5 -d 4 -p cbr -e 532 -c 2 -a 0 -i 41 -k RTR
h -t 15.447215381 -s 5 -d 4 -p cbr -e 532 -c 2 -a 0 -i 41 -k RTR
+ -t 15.447427550 -s 7 -d 10 -p cbr -e 552 -c 2 -a 0 -i 40 -k RTR 
- -t 15.447427550 -s 7 -d 10 -p cbr -e 552 -c 2 -a 0 -i 40 -k RTR
h -t 15.447427550 -s 7 -d 10 -p cbr -e 552 -c 2 -a 0 -i 40 -k RTR
+ -t 15.449669594 -s 0 -d -1 -p cbr -e 512 -c 2 -a 0 -i 42 -k AGT 
- -t 15.449669594 -s 0 -d -1 -p cbr -e 512 -c 2 -a 0 -i 42 -k AGT
h -t 15.449669594 -s 0 -d -1 -p cbr -e 512 -c 2 -a 0 -i 42 -k AGT
+ -t 15.449669594 -s 0 -d 1 -p cbr -e 556 -c 2 -a 0 -i 42 -k RTR 
- -t 15.449669594 -s 0 -d 1 -p cbr -e 556 -c 2 -a 0 -i 42 -k RTR
h -t 15.449669594 -s 0 -d 1 -p cbr -e 556 -c 2 -a 0 -i 42 -k RTR
+ -t 15.453222296 -s 4 -d 6 -p cbr -e 532 -c 2 -a 0 -i 41 -k RTR 
- -t 15.453222296 -s 4 -d 6 -p cbr -e 532 -c 2 -a 0 -i 41 -k RTR
h -t 15.453222296 -s 4 -d 6 -p cbr -e 532 -c 2 -a 0 -i 41 -k RTR
+ -t 15.459519003 -s 1 -d 7 -p cbr -e 556 -c 2 -a 0 -i 42 -k RTR 
- -t 15.459519003 -s 1 -d 7 -p cbr -e 556 -c 2 -a 0 -i 42 -k RTR
h -t 15.459519003 -s 1 -d 7 -p cbr -e 556 -c 2 -a 0 -i 42 -k RTR
r -t 15.465543279 -s 10 -d 10 -p cbr -e 512 -c 2 -a 0 -i 40 -k AGT
r -t 15.471642515 -s 6 -d 6 -p cbr -e 512 -c 2 -a 0 -i 41 -k AGT
+ -t 15.478213458 -s 7 -d 10 -p cbr -e 556 -c 2 -a 0 -i 42 -k RTR 
- -t 15.478213458 -s 7 -d 10 -p cbr -e 556 -c 2 -a 0 -i 42 -k RTR
h -t 15.478213458 -s 7 -d 10 -p cbr -e 556 -c 2 -a 0 -i 42 -k RTR
r -t 15.484519458 -s 10 -d 10 -p cbr -e 512 -c 2 -a 0 -i 42 -k AGT
+ -t 15.509779728 -s 0 -d -1 -p cbr -e 512 -c 2 -a 0 -i 43 -k AGT 
- -t 15.509779728 -s 0 -d -1 -p cbr -e 512 -c 2 -a 0 -i 43 -k AGT
h -t 15.509779728 -s 0 -d -1 -p cbr -e 512 -c 2 -a 0 -i 43 -k AGT
+ -t 15.509779728 -s 0 -d 1 -p cbr -e 532 -c 2 -a 0 -i 43 -k RTR 
- -t 15.509779728 -s 0 -d 1 -p cbr -e 532 -c 2 -a 0 -i 43 -k RTR
h -t 15.509779728 -s 0 -d 1 -p cbr -e 532 -c 2 -a 0 -i 43 -k RTR
+ -t 15.515269728 -s 1 -d 7 -p cbr -e 532 -c 2 -a 0 -i 43 -k RTR 
- -t 15.515269728 -s 1 -d 7 -p cbr -e 532 -c 2 -a 0 -i 43 -k RTR
h -t 15.515269728 -s 1 -d 7 -p cbr -e 532 -c 2 -a 0 -i 43 -k RTR
+ -t 15.521163728 -s 7 -d 10 -p cbr -e 532 -c 2 -a 0 -i 43 -k RTR 
- -t 15.521163728 -s 7 -d 10 -p cbr -e 532 -c 2 -a 0 -i 43 -k RTR
h -t 15.521163728 -s 7 -d 10 -p cbr -e 532 -c 2 -a 0 -i 43 -k RTR
r -t 15.527257728 -s 10 -d 10 -p cbr -e 512 -c 2 -a 0 -i 43 -k AGT
+ -t 15.564567155 -s 1 -d -1 -p cbr -e 512 -c 2 -a 0 -i 44 -k AGT 
- -t 15.564567155 -s 1 -d -1 -p cbr -e 512 -c 2 -a 0 -i 44 -k AGT
h -t 15.564567155 -s 1 -d -1 -p cbr -e 512 -c 2 -a 0 -i 44 -k AGT
+ -t 15.564567155 -s 1 -d 7 -p cbr -e 552 -c 2 -a 0 -i 44 -k RTR 
- -t 15.564567155 -s 1 -d 7 -p cbr -e 552 -c 2 -a 0 -i 44 -k RTR
h -t 15.564567155 -s 1 -d 7 -p cbr -e 552 -c 2 -a 0 -i 44 -k RTR
+ -t 15.570277155 -s 7 -d 10 -p cbr -e 552 -c 2 -a 0 -i 44 -k RTR 
- -t 15.570277155 -s 7 -d 10 -p cbr -e 552 -c 2 -a 0 -i 44 -k RTR
h -t 15.570277155 -s 7 -d 10 -p cbr -e 552 -c 2 -a 0 -i 44 -k RTR
r -t 15.576671155 -s 10 -d 10 -p cbr -e 512 -c 2 -a 0 -i 44 -k AGT
+ -t 15.589826291 -s 5 -d -1 -p cbr -e 512 -c 2 -a 0 -i 45 -k AGT 
- -t 15.589826291 -s 5 -d -1 -p cbr -e 512 -c 2 -a 0 -i 45 -k AGT
h -t 15.589826291 -s 5 -d -1 -p cbr -e 512 -c 2 -a 0 -i 45 -k AGT
+ -t 15.589826291 -s 5 -d 4 -p cbr -e 532 -c 2 -a 0 -i 45 -k RTR 
- -t 15.589826291 -s 5 -d 4 -p cbr -e 532 -c 2 -a 0 -i 45 -k RTR
h -t 15.589826291 -s 5 -d 4 -p cbr -e 532 -c 2 -a 0 -i 45 -k RTR
+ -t 15.595856291 -s 4 -d 6 -p cbr -e 532 -c 2 -a 0 -i 45 -k RTR 
- -t 15.595856291 -s 4 -d 6 -p cbr -e 532 -c 2 -a 0 -i 45 -k RTR