Sconfig 0.00000 tap: on snoop: rts? on errs? on
Sconfig 0.00000 salvage: on !bd replies? on
Sconfig 0.00000 grat error: on grat reply: on
Sconfig 0.00000 $reply for props: on ring 0 search: on
Sconfig 0.00000 using MOBICACHE
s 15.000000000 _0_ AGT  --- 0 cbr 512 [0 0 0 0] ------- [0:0 19:0 32 0] [0] 0 0
r 15.000000000 _0_ RTR  --- 0 cbr 512 [0 0 0 0] ------- [0:0 19:0 32 0] [0] 0 0
s 15.000000000 _1_ AGT  --- 2 cbr 512 [0 0 0 0] ------- [1:0 21:0 32 0] [0] 0 0
r 15.000000000 _1_ RTR  --- 2 cbr 512 [0 0 0 0] ------- [1:0 21:0 32 0] [0] 0 0
s 15.000000000 _24_ AGT  --- 4 cbr 512 [0 0 0 0] ------- [24:0 25:0 32 0] [0] 0 0
r 15.000000000 _24_ RTR  --- 4 cbr 512 [0 0 0 0] ------- [24:0 25:0 32 0] [0] 0 0
s 15.003127930 _0_ RTR  --- 1 DSR 32 [0 0 0 0] ------- [0:255 19:255 32 0] 1 [1 1] [0 1 0 0->0] [0 0 0 0->0]
s 15.003317331 _1_ RTR  --- 3 DSR 32 [0 0 0 0] ------- [1:255 21:255 32 0] 1 [1 1] [0 1 0 0->0] [0 0 0 0->0]
r 15.004209664 _4_ RTR  --- 3 DSR 32 [0 ffffffff 1 800] ------- [1:255 21:255 32 0] 1 [1 1] [0 1 0 0->0] [0 0 0 0->0]
r 15.004209802 _27_ RTR  --- 3 DSR 32 [0 ffffffff 1 800] ------- [1:255 21:255 32 0] 1 [1 1] [0 1 0 0->0] [0 0 0 0->0]
r 15.004209802 _26_ RTR  --- 3 DSR 32 [0 ffffffff 1 800] ------- [1:255 21:255 32 0] 1 [1 1] [0 1 0 0->0] [0 0 0 0->0]
r 15.004209998 _0_ RTR  --- 3 DSR 32 [0 ffffffff 1 800] ------- [1:255 21:255 32 0] 1 [1 1] [0 1 0 0->0] [0 0 0 0->0]
r 15.004209998 _7_ RTR  --- 3 DSR 32 [0 ffffffff 1 800] ------- [1:255 21:255 32 0] 1 [1 1] [0 1 0 0->0] [0 0 0 0->0]
r 15.004209998 _2_ RTR  --- 3 DSR 32 [0 ffffffff 1 800] ------- [1:255 21:255 32 0] 1 [1 1] [0 1 0 0->0] [0 0 0 0->0]
r 15.004210076 _25_ RTR  --- 3 DSR 32 [0 ffffffff 1 800] ------- [1:255 21:255 32 0] 1 [1 1] [0 1 0 0->0] [0 0 0 0->0]
r 15.004210076 _3_ RTR  --- 3 DSR 32 [0 ffffffff 1 800] ------- [1:255 21:255 32 0] 1 [1 1] [0 1 0 0->0] [0 0 0 0->0]
r 15.004210076 _24_ RTR  --- 3 DSR 32 [0 ffffffff 1 800] ------- [1:255 21:255 32 0] 1 [1 1] [0 1 0 0->0] [0 0 0 0->0]
r 15.004210076 _5_ RTR  --- 3 DSR 32 [0 ffffffff 1 800] ------- [1:255 21:255 32 0] 1 [1 1] [0 1 0 0->0] [0 0 0 0->0]
s 15.004838982 _24_ RTR  --- 5 DSR 32 [0 0 0 0] ------- [24:255 25:255 32 0] 1 [1 1] [0 1 0 0->0] [0 0 0 0->0]
r 15.005132331 _3_ RTR  --- 1 DSR 32 [0 ffffffff 0 800] ------- [0:255 19:255 32 0] 1 [1 1] [0 1 0 0->0] [0 0 0 0->0]
r 15.005132469 _27_ RTR  --- 1 DSR 32 [0 ffffffff 0 800] ------- [0:255 19:255 32 0] 1 [1 1] [0 1 0 0->0] [0 0 0 0->0]
r 15.005132664 _6_ RTR  --- 1 DSR 32 [0 ffffffff 0 800] ------- [0:255 19:255 32 0] 1 [1 1] [0 1 0 0->0] [0 0 0 0->0]
r 15.005132664 _1_ RTR  --- 1 DSR 32 [0 ffffffff 0 800] ------- [0:255 19:255 32 0] 1 [1 1] [0 1 0 0->0] [0 0 0 0->0]
r 15.005132743 _25_ RTR  --- 1 DSR 32 [0 ffffffff 0 800] ------- [0:255 19:255 32 0] 1 [1 1] [0 1 0 0->0] [0 0 0 0->0]
r 15.005132743 _4_ RTR  --- 1 DSR 32 [0 ffffffff 0 800] ------- [0:255 19:255 32 0] 1 [1 1] [0 1 0 0->0] [0 0 0 0->0]
r 15.006259533 _22_ RTR  --- 5 DSR 32 [0 ffffffff 18 800] ------- [24:255 25:255 32 0] 1 [1 1] [0 1 0 0->0] [0 0 0 0->0]
r 15.006259533 _7_ RTR  --- 5 DSR 32 [0 ffffffff 18 800] ------- [24:255 25:255 32 0] 1 [1 1] [0 1 0 0->0] [0 0 0 0->0]
r 15.006259533 _26_ RTR  --- 5 DSR 32 [0 ffffffff 18 800] ------- [24:255 25:255 32 0] 1 [1 1] [0 1 0 0->0] [0 0 0 0->0]
r 15.006259533 _8_ RTR  --- 5 DSR 32 [0 ffffffff 18 800] ------- [24:255 25:255 32 0] 1 [1 1] [0 1 0 0->0] [0 0 0 0->0]
r 15.006259671 _10_ RTR  --- 5 DSR 32 [0 ffffffff 18 800] ------- [24:255 25:255 32 0] 1 [1 1] [0 1 0 0->0] [0 0 0 0->0]
r 15.006259671 _4_ RTR  --- 5 DSR 32 [0 ffffffff 18 800] ------- [24:255 25:255 32 0] 1 [1 1] [0 1 0 0->0] [0 0 0 0->0]
r 15.006259671 _5_ RTR  --- 5 DSR 32 [0 ffffffff 18 800] ------- [24:255 25:255 32 0] 1 [1 1] [0 1 0 0->0] [0 0 0 0->0]
r 15.006259671 _11_ RTR  --- 5 DSR 32 [0 ffffffff 18 800] ------- [24:255 25:255 32 0] 1 [1 1] [0 1 0 0->0] [0 0 0 0->0]
r 15.006259866 _20_ RTR  --- 5 DSR 32 [0 ffffffff 18 800] ------- [24:255 25:255 32 0] 1 [1 1] [0 1 0 0->0] [0 0 0 0->0]
r 15.006259866 _25_ RTR  --- 5 DSR 32 [0 ffffffff 18 800] ------- [24:255 25:255 32 0] 1 [1 1] [0 1 0 0->0] [0 0 0 0->0]
r 15.006259945 _13_ RTR  --- 5 DSR 32 [0 ffffffff 18 800] ------- [24:255 25:255 32 0] 1 [1 1] [0 1 0 0->0] [0 0 0 0->0]
r 15.006259945 _1_ RTR  --- 5 DSR 32 [0 ffffffff 18 800] ------- [24:255 25:255 32 0] 1 [1 1] [0 1 0 0->0] [0 0 0 0->0]
r 15.006259945 _27_ RTR  --- 5 DSR 32 [0 ffffffff 18 800] ------- [24:255 25:255 32 0] 1 [1 1] [0 1 0 0->0] [0 0 0 0->0]
r 15.006259945 _23_ RTR  --- 5 DSR 32 [0 ffffffff 18 800] ------- [24:255 25:255 32 0] 1 [1 1] [0 1 0 0->0] [0 0 0 0->0]
r 15.006259945 _2_ RTR  --- 5 DSR 32 [0 ffffffff 18 800] ------- [24:255 25:255 32 0] 1 [1 1] [0 1 0 0->0] [0 0 0 0->0]
r 15.006259945 _14_ RTR  --- 5 DSR 32 [0 ffffffff 18 800] ------- [24:255 25:255 32 0] 1 [1 1] [0 1 0 0->0] [0 0 0 0->0]
s 15.008409998 _25_ RTR  --- 7 DSR 44 [0 0 0 0] ------- [25:255 24:255 254 24] 2 [0 1] [1 1 2 24->25] [0 0 0 0->0]
r 15.010135998 _24_ RTR  --- 7 DSR 44 [13a 18 19 800] ------- [25:255 24:255 254 24] 2 [0 1] [1 1 2 24->25] [0 0 0 0->0]
SFESTs 15.010135998 _24_ 4 [24 -> 25] 1(1) to 25 [24 |25 ]
s 15.010135998 _24_ RTR  --- 4 cbr 548 [0 0 0 0] ------- [24:0 25:0 32 25] [0] 0 0
r 15.016397998 _25_ RTR  --- 4 cbr 548 [13a 19 18 800] ------- [24:0 25:0 32 25] [0] 1 0
r 15.016397998 _25_ AGT  --- 4 cbr 512 [13a 19 18 800] ------- [24:0 25:0 32 25] [0] 1 0
s 15.043213122 _1_ RTR  --- 8 DSR 32 [0 0 0 0] ------- [1:255 21:255 32 0] 1 [1 2] [0 2 0 0->16] [0 0 0 0->0]
r 15.043985455 _4_ RTR  --- 8 DSR 32 [0 ffffffff 1 800] ------- [1:255 21:255 32 0] 1 [1 2] [0 2 0 0->16] [0 0 0 0->0]
r 15.043985593 _27_ RTR  --- 8 DSR 32 [0 ffffffff 1 800] ------- [1:255 21:255 32 0] 1 [1 2] [0 2 0 0->16] [0 0 0 0->0]
r 15.043985593 _26_ RTR  --- 8 DSR 32 [0 ffffffff 1 800] ------- [1:255 21:255 32 0] 1 [1 2] [0 2 0 0->16] [0 0 0 0->0]
r 15.043985788 _0_ RTR  --- 8 DSR 32 [0 ffffffff 1 800] ------- [1:255 21:255 32 0] 1 [1 2] [0 2 0 0->16] [0 0 0 0->0]
r 15.043985788 _7_ RTR  --- 8 DSR 32 [0 ffffffff 1 800] ------- [1:255 21:255 32 0] 1 [1 2] [0 2 0 0->16] [0 0 0 0->0]
r 15.043985788 _2_ RTR  --- 8 DSR 32 [0 ffffffff 1 800] ------- [1:255 21:255 32 0] 1 [1 2] [0 2 0 0->16] [0 0 0 0->0]
r 15.043985867 _25_ RTR  --- 8 DSR 32 [0 ffffffff 1 800] ------- [1:255 21:255 32 0] 1 [1 2] [0 2 0 0->16] [0 0 0 0->0]
r 15.043985867 _3_ RTR  --- 8 DSR 32 [0 ffffffff 1 800] ------- [1:255 21:255 32 0] 1 [1 2] [0 2 0 0->16] [0 0 0 0->0]
r 15.043985867 _24_ RTR  --- 8 DSR 32 [0 ffffffff 1 800] ------- [1:255 21:255 32 0] 1 [1 2] [0 2 0 0->16] [0 0 0 0->0]
r 15.043985867 _5_ RTR  --- 8 DSR 32 [0 ffffffff 1 800] ------- [1:255 21:255 32 0] 1 [1 2] [0 2 0 0->16] [0 0 0 0->0]
f 15.044194689 _25_ RTR  --- 8 DSR 48 [0 ffffffff 1 800] ------- [1:255 21:255 32 0] 2 [1 2] [0 2 0 0->16] [0 0 0 0->0]
f 15.044441188 _27_ RTR  --- 8 DSR 48 [0 ffffffff 1 800] ------- [1:255 21:255 32 0] 2 [1 2] [0 2 0 0->16] [0 0 0 0->0]
f 15.044971944 _24_ RTR  --- 8 DSR 48 [0 ffffffff 1 800] ------- [1:255 21:255 32 0] 2 [1 2] [0 2 0 0->16] [0 0 0 0->0]
r 15.045315022 _23_ RTR  --- 8 DSR 48 [0 ffffffff 19 800] ------- [1:255 21:255 32 0] 2 [1 2] [0 2 0 0->16] [0 0 0 0->0]
r 15.045315022 _6_ RTR  --- 8 DSR 48 [0 ffffffff 19 800] ------- [1:255 21:255 32 0] 2 [1 2] [0 2 0 0->16] [0 0 0 0->0]
r 15.045315022 _27_ RTR  --- 8 DSR 48 [0 ffffffff 19 800] ------- [1:255 21:255 32 0] 2 [1 2] [0 2 0 0->16] [0 0 0 0->0]
r 15.045315022 _7_ RTR  --- 8 DSR 48 [0 ffffffff 19 800] ------- [1:255 21:255 32 0] 2 [1 2] [0 2 0 0->16] [0 0 0 0->0]
r 15.045315160 _9_ RTR  --- 8 DSR 48 [0 ffffffff 19 800] ------- [1:255 21:255 32 0] 2 [1 2] [0 2 0 0->16] [0 0 0 0->0]
r 15.045315160 _3_ RTR  --- 8 DSR 48 [0 ffffffff 19 800] ------- [1:255 21:255 32 0] 2 [1 2] [0 2 0 0->16] [0 0 0 0->0]
r 15.045315160 _4_ RTR  --- 8 DSR 48 [0 ffffffff 19 800] ------- [1:255 21:255 32 0] 2 [1 2] [0 2 0 0->16] [0 0 0 0->0]
r 15.045315160 _10_ RTR  --- 8 DSR 48 [0 ffffffff 19 800] ------- [1:255 21:255 32 0] 2 [1 2] [0 2 0 0->16] [0 0 0 0->0]
r 15.045315356 _21_ RTR  --- 8 DSR 48 [0 ffffffff 19 800] ------- [1:255 21:255 32 0] 2 [1 2] [0 2 0 0->16] [0 0 0 0->0]
r 15.045315356 _24_ RTR  --- 8 DSR 48 [0 ffffffff 19 800] ------- [1:255 21:255 32 0] 2 [1 2] [0 2 0 0->16] [0 0 0 0->0]
r 15.045315434 _12_ RTR  --- 8 DSR 48 [0 ffffffff 19 800] ------- [1:255 21:255 32 0] 2 [1 2] [0 2 0 0->16] [0 0 0 0->0]
r 15.045315434 _0_ RTR  --- 8 DSR 48 [0 ffffffff 19 800] ------- [1:255 21:255 32 0] 2 [1 2] [0 2 0 0->16] [0 0 0 0->0]
r 15.045315434 _1_ RTR  --- 8 DSR 48 [0 ffffffff 19 800] ------- [1:255 21:255 32 0] 2 [1 2] [0 2 0 0->16] [0 0 0 0->0]
r 15.045315434 _13_ RTR  --- 8 DSR 48 [0 ffffffff 19 800] ------- [1:255 21:255 32 0] 2 [1 2] [0 2 0 0->16] [0 0 0 0->0]
r 15.045315434 _22_ RTR  --- 8 DSR 48 [0 ffffffff 19 800] ------- [1:255 21:255 32 0] 2 [1 2] [0 2 0 0->16] [0 0 0 0->0]
r 15.045315434 _26_ RTR  --- 8 DSR 48 [0 ffffffff 19 800] ------- [1:255 21:255 32 0] 2 [1 2] [0 2 0 0->16] [0 0 0 0->0]
f 15.045393041 _10_ RTR  --- 8 DSR 68 [0 ffffffff 19 800] ------- [1:255 21:255 32 0] 3 [1 2] [0 2 0 0->16] [0 0 0 0->0]
r 15.046673374 _7_ RTR  --- 8 DSR 68 [0 ffffffff a 800] ------- [1:255 21:255 32 0] 3 [1 2] [0 2 0 0->16] [0 0 0 0->0]
r 15.046673374 _23_ RTR  --- 8 DSR 68 [0 ffffffff a 800] ------- [1:255 21:255 32 0] 3 [1 2] [0 2 0 0->16] [0 0 0 0->0]
r 15.046673374 _13_ RTR  --- 8 DSR 68 [0 ffffffff a 800] ------- [1:255 21:255 32 0] 3 [1 2] [0 2 0 0->16] [0 0 0 0->0]
r 15.046673374 _22_ RTR  --- 8 DSR 68 [0 ffffffff a 800] ------- [1:255 21:255 32 0] 3 [1 2] [0 2 0 0->16] [0 0 0 0->0]
r 15.046673512 _25_ RTR  --- 8 DSR 68 [0 ffffffff a 800] ------- [1:255 21:255 32 0] 3 [1 2] [0 2 0 0->16] [0 0 0 0->0]
r 15.046673512 _21_ RTR  --- 8 DSR 68 [0 ffffffff a 800] ------- [1:255 21:255 32 0] 3 [1 2] [0 2 0 0->16] [0 0 0 0->0]
r 15.046673512 _20_ RTR  --- 8 DSR 68 [0 ffffffff a 800] ------- [1:255 21:255 32 0] 3 [1 2] [0 2 0 0->16] [0 0 0 0->0]
r 15.046673512 _24_ RTR  --- 8 DSR 68 [0 ffffffff a 800] ------- [1:255 21:255 32 0] 3 [1 2] [0 2 0 0->16] [0 0 0 0->0]
r 15.046673708 _4_ RTR  --- 8 DSR 68 [0 ffffffff a 800] ------- [1:255 21:255 32 0] 3 [1 2] [0 2 0 0->16] [0 0 0 0->0]
r 15.046673708 _9_ RTR  --- 8 DSR 68 [0 ffffffff a 800] ------- [1:255 21:255 32 0] 3 [1 2] [0 2 0 0->16] [0 0 0 0->0]
r 15.046673708 _16_ RTR  --- 8 DSR 68 [0 ffffffff a 800] ------- [1:255 21:255 32 0] 3 [1 2] [0 2 0 0->16] [0 0 0 0->0]
r 15.046673708 _11_ RTR  --- 8 DSR 68 [0 ffffffff a 800] ------- [1:255 21:255 32 0] 3 [1 2] [0 2 0 0->16] [0 0 0 0->0]
r 15.046673786 _27_ RTR  --- 8 DSR 68 [0 ffffffff a 800] ------- [1:255 21:255 32 0] 3 [1 2] [0 2 0 0->16] [0 0 0 0->0]
r 15.046673786 _19_ RTR  --- 8 DSR 68 [0 ffffffff a 800] ------- [1:255 21:255 32 0] 3 [1 2] [0 2 0 0->16] [0 0 0 0->0]
r 15.046673786 _12_ RTR  --- 8 DSR 68 [0 ffffffff a 800] ------- [1:255 21:255 32 0] 3 [1 2] [0 2 0 0->16] [0 0 0 0->0]
r 15.046673786 _6_ RTR  --- 8 DSR 68 [0 ffffffff a 800] ------- [1:255 21:255 32 0] 3 [1 2] [0 2 0 0->16] [0 0 0 0->0]
r 15.046673786 _18_ RTR  --- 8 DSR 68 [0 ffffffff a 800] ------- [1:255 21:255 32 0] 3 [1 2] [0 2 0 0->16] [0 0 0 0->0]
r 15.046673786 _26_ RTR  --- 8 DSR 68 [0 ffffffff a 800] ------- [1:255 21:255 32 0] 3 [1 2] [0 2 0 0->16] [0 0 0 0->0]
r 15.046673786 _8_ RTR  --- 8 DSR 68 [0 ffffffff a 800] ------- [1:255 21:255 32 0] 3 [1 2] [0 2 0 0->16] [0 0 0 0->0]
r 15.046673786 _14_ RTR  --- 8 DSR 68 [0 ffffffff a 800] ------- [1:255 21:255 32 0] 3 [1 2] [0 2 0 0->16] [0 0 0 0->0]
f 15.046936740 _26_ RTR  --- 8 DSR 48 [0 ffffffff 1 800] ------- [1:255 21:255 32 0] 2 [1 2] [0 2 0 0->16] [0 0 0 0->0]
f 15.046971729 _12_ RTR  --- 8 DSR 68 [0 ffffffff 19 800] ------- [1:255 21:255 32 0] 3 [1 2] [0 2 0 0->16] [0 0 0 0->0]
f 15.047041588 _3_ RTR  --- 8 DSR 48 [0 ffffffff 1 800] ------- [1:255 21:255 32 0] 2 [1 2] [0 2 0 0->16] [0 0 0 0->0]
f 15.047089529 _0_ RTR  --- 8 DSR 48 [0 ffffffff 1 800] ------- [1:255 21:255 32 0] 2 [1 2] [0 2 0 0->16] [0 0 0 0->0]
r 15.047563846 _22_ RTR  --- 8 DSR 48 [0 ffffffff 18 800] ------- [1:255 21:255 32 0] 2 [1 2] [0 2 0 0->16] [0 0 0 0->0]
r 15.047563846 _7_ RTR  --- 8 DSR 48 [0 ffffffff 18 800] ------- [1:255 21:255 32 0] 2 [1 2] [0 2 0 0->16] [0 0 0 0->0]
r 15.047563846 _26_ RTR  --- 8 DSR 48 [0 ffffffff 18 800] ------- [1:255 21:255 32 0] 2 [1 2] [0 2 0 0->16] [0 0 0 0->0]
r 15.047563846 _8_ RTR  --- 8 DSR 48 [0 ffffffff 18 800] ------- [1:255 21:255 32 0] 2 [1 2] [0 2 0 0->16] [0 0 0 0->0]
r 15.047563984 _10_ RTR  --- 8 DSR 48 [0 ffffffff 18 800] ------- [1:255 21:255 32 0] 2 [1 2] [0 2 0 0->16] [0 0 0 0->0]
r 15.047563984 _4_ RTR  --- 8 DSR 48 [0 ffffffff 18 800] ------- [1:255 21:255 32 0] 2 [1 2] [0 2 0 0->16] [0 0 0 0->0]
r 15.047563984 _5_ RTR  --- 8 DSR 48 [0 ffffffff 18 800] ------- [1:255 21:255 32 0] 2 [1 2] [0 2 0 0->16] [0 0 0 0->0]
r 15.047563984 _11_ RTR  --- 8 DSR 48 [0 ffffffff 18 800] ------- [1:255 21:255 32 0] 2 [1 2] [0 2 0 0->16] [0 0 0 0->0]
r 15.047564179 _20_ RTR  --- 8 DSR 48 [0 ffffffff 18 800] ------- [1:255 21:255 32 0] 2 [1 2] [0 2 0 0->16] [0 0 0 0->0]
r 15.047564179 _25_ RTR  --- 8 DSR 48 [0 ffffffff 18 800] ------- [1:255 21:255 32 0] 2 [1 2] [0 2 0 0->16] [0 0 0 0->0]
r 15.047564258 _13_ RTR  --- 8 DSR 48 [0 ffffffff 18 800] ------- [1:255 21:255 32 0] 2 [1 2] [0 2 0 0->16] [0 0 0 0->0]
r 15.047564258 _1_ RTR  --- 8 DSR 48 [0 ffffffff 18 800] ------- [1:255 21:255 32 0] 2 [1 2] [0 2 0 0->16] [0 0 0 0->0]
r 15.047564258 _27_ RTR  --- 8 DSR 48 [0 ffffffff 18 800] ------- [1:255 21:255 32 0] 2 [1 2] [0 2 0 0->16] [0 0 0 0->0]
r 15.047564258 _23_ RTR  --- 8 DSR 48 [0 ffffffff 18 800] ------- [1:255 21:255 32 0] 2 [1 2] [0 2 0 0->16] [0 0 0 0->0]
r 15.047564258 _2_ RTR  --- 8 DSR 48 [0 ffffffff 18 800] ------- [1:255 21:255 32 0] 2 [1 2] [0 2 0 0->16] [0 0 0 0->0]
r 15.047564258 _14_ RTR  --- 8 DSR 48 [0 ffffffff 18 800] ------- [1:255 21:255 32 0] 2 [1 2] [0 2 0 0->16] [0 0 0 0->0]
r 15.048454591 _25_ RTR  --- 8 DSR 48 [0 ffffffff 1b 800] ------- [1:255 21:255 32 0] 2 [1 2] [0 2 0 0->16] [0 0 0 0->0]
r 15.048454591 _3_ RTR  --- 8 DSR 48 [0 ffffffff 1b 800] ------- [1:255 21:255 32 0] 2 [1 2] [0 2 0 0->16] [0 0 0 0->0]
r 15.048454591 _4_ RTR  --- 8 DSR 48 [0 ffffffff 1b 800] ------- [1:255 21:255 32 0] 2 [1 2] [0 2 0 0->16] [0 0 0 0->0]
r 15.048454729 _6_ RTR  --- 8 DSR 48 [0 ffffffff 1b 800] ------- [1:255 21:255 32 0] 2 [1 2] [0 2 0 0->16] [0 0 0 0->0]
r 15.048454729 _0_ RTR  --- 8 DSR 48 [0 ffffffff 1b 800] ------- [1:255 21:255 32 0] 2 [1 2] [0 2 0 0->16] [0 0 0 0->0]
r 15.048454729 _1_ RTR  --- 8 DSR 48 [0 ffffffff 1b 800] ------- [1:255 21:255 32 0] 2 [1 2] [0 2 0 0->16] [0 0 0 0->0]
r 15.048454729 _7_ RTR  --- 8 DSR 48 [0 ffffffff 1b 800] ------- [1:255 21:255 32 0] 2 [1 2] [0 2 0 0->16] [0 0 0 0->0]
r 15.048454924 _23_ RTR  --- 8 DSR 48 [0 ffffffff 1b 800] ------- [1:255 21:255 32 0] 2 [1 2] [0 2 0 0->16] [0 0 0 0->0]
r 15.048454924 _26_ RTR  --- 8 DSR 48 [0 ffffffff 1b 800] ------- [1:255 21:255 32 0] 2 [1 2] [0 2 0 0->16] [0 0 0 0->0]
r 15.048455003 _9_ RTR  --- 8 DSR 48 [0 ffffffff 1b 800] ------- [1:255 21:255 32 0] 2 [1 2] [0 2 0 0->16] [0 0 0 0->0]
r 15.048455003 _10_ RTR  --- 8 DSR 48 [0 ffffffff 1b 800] ------- [1:255 21:255 32 0] 2 [1 2] [0 2 0 0->16] [0 0 0 0->0]
r 15.048455003 _24_ RTR  --- 8 DSR 48 [0 ffffffff 1b 800] ------- [1:255 21:255 32 0] 2 [1 2] [0 2 0 0->16] [0 0 0 0->0]
f 15.048712098 _4_ RTR  --- 8 DSR 48 [0 ffffffff 1 800] ------- [1:255 21:255 32 0] 2 [1 2] [0 2 0 0->16] [0 0 0 0->0]
f 15.048716668 _2_ RTR  --- 8 DSR 48 [0 ffffffff 1 800] ------- [1:255 21:255 32 0] 2 [1 2] [0 2 0 0->16] [0 0 0 0->0]
f 15.048996462 _20_ RTR  --- 8 DSR 92 [0 ffffffff a 800] ------- [1:255 21:255 32 0] 4 [1 2] [0 2 0 0->16] [0 0 0 0->0]
r 15.049424924 _0_ RTR  --- 8 DSR 48 [0 ffffffff 3 800] ------- [1:255 21:255 32 0] 2 [1 2] [0 2 0 0->16] [0 0 0 0->0]
r 15.049424924 _6_ RTR  --- 8 DSR 48 [0 ffffffff 3 800] ------- [1:255 21:255 32 0] 2 [1 2] [0 2 0 0->16] [0 0 0 0->0]
r 15.049424924 _27_ RTR  --- 8 DSR 48 [0 ffffffff 3 800] ------- [1:255 21:255 32 0] 2 [1 2] [0 2 0 0->16] [0 0 0 0->0]
r 15.049425062 _25_ RTR  --- 8 DSR 48 [0 ffffffff 3 800] ------- [1:255 21:255 32 0] 2 [1 2] [0 2 0 0->16] [0 0 0 0->0]
r 15.049425258 _9_ RTR  --- 8 DSR 48 [0 ffffffff 3 800] ------- [1:255 21:255 32 0] 2 [1 2] [0 2 0 0->16] [0 0 0 0->0]
r 15.049425258 _4_ RTR  --- 8 DSR 48 [0 ffffffff 3 800] ------- [1:255 21:255 32 0] 2 [1 2] [0 2 0 0->16] [0 0 0 0->0]
r 15.049425336 _23_ RTR  --- 8 DSR 48 [0 ffffffff 3 800] ------- [1:255 21:255 32 0] 2 [1 2] [0 2 0 0->16] [0 0 0 0->0]
r 15.049425336 _1_ RTR  --- 8 DSR 48 [0 ffffffff 3 800] ------- [1:255 21:255 32 0] 2 [1 2] [0 2 0 0->16] [0 0 0 0->0]
r 15.049425336 _7_ RTR  --- 8 DSR 48 [0 ffffffff 3 800] ------- [1:255 21:255 32 0] 2 [1 2] [0 2 0 0->16] [0 0 0 0->0]
f 15.049515002 _23_ RTR  --- 8 DSR 68 [0 ffffffff 19 800] ------- [1:255 21:255 32 0] 3 [1 2] [0 2 0 0->16] [0 0 0 0->0]
r 15.050535591 _1_ RTR  --- 8 DSR 48 [0 ffffffff 4 800] ------- [1:255 21:255 32 0] 2 [1 2] [0 2 0 0->16] [0 0 0 0->0]
r 15.050535591 _27_ RTR  --- 8 DSR 48 [0 ffffffff 4 800] ------- [1:255 21:255 32 0] 2 [1 2] [0 2 0 0->16] [0 0 0 0->0]
r 15.050535591 _7_ RTR  --- 8 DSR 48 [0 ffffffff 4 800] ------- [1:255 21:255 32 0] 2 [1 2] [0 2 0 0->16] [0 0 0 0->0]
r 15.050535591 _26_ RTR  --- 8 DSR 48 [0 ffffffff 4 800] ------- [1:255 21:255 32 0] 2 [1 2] [0 2 0 0->16] [0 0 0 0->0]
r 15.050535729 _25_ RTR  --- 8 DSR 48 [0 ffffffff 4 800] ------- [1:255 21:255 32 0] 2 [1 2] [0 2 0 0->16] [0 0 0 0->0]
r 15.050535729 _24_ RTR  --- 8 DSR 48 [0 ffffffff 4 800] ------- [1:255 21:255 32 0] 2 [1 2] [0 2 0 0->16] [0 0 0 0->0]
r 15.050535924 _3_ RTR  --- 8 DSR 48 [0 ffffffff 4 800] ------- [1:255 21:255 32 0] 2 [1 2] [0 2 0 0->16] [0 0 0 0->0]
r 15.050535924 _10_ RTR  --- 8 DSR 48 [0 ffffffff 4 800] ------- [1:255 21:255 32 0] 2 [1 2] [0 2 0 0->16] [0 0 0 0->0]
r 15.050535924 _5_ RTR  --- 8 DSR 48 [0 ffffffff 4 800] ------- [1:255 21:255 32 0] 2 [1 2] [0 2 0 0->16] [0 0 0 0->0]
r 15.050536003 _23_ RTR  --- 8 DSR 48 [0 ffffffff 4 800] ------- [1:255 21:255 32 0] 2 [1 2] [0 2 0 0->16] [0 0 0 0->0]
r 15.050536003 _6_ RTR  --- 8 DSR 48 [0 ffffffff 4 800] ------- [1:255 21:255 32 0] 2 [1 2] [0 2 0 0->16] [0 0 0 0->0]
r 15.050536003 _0_ RTR  --- 8 DSR 48 [0 ffffffff 4 800] ------- [1:255 21:255 32 0] 2 [1 2] [0 2 0 0->16] [0 0 0 0->0]
r 15.050536003 _22_ RTR  --- 8 DSR 48 [0 ffffffff 4 800] ------- [1:255 21:255 32 0] 2 [1 2] [0 2 0 0->16] [0 0 0 0->0]
r 15.050536003 _2_ RTR  --- 8 DSR 48 [0 ffffffff 4 800] ------- [1:255 21:255 32 0] 2 [1 2] [0 2 0 0->16] [0 0 0 0->0]
r 15.050536003 _8_ RTR  --- 8 DSR 48 [0 ffffffff 4 800] ------- [1:255 21:255 32 0] 2 [1 2] [0 2 0 0->16] [0 0 0 0->0]
f 15.050576987 _6_ RTR  --- 8 DSR 68 [0 ffffffff 19 800] ------- [1:255 21:255 32 0] 3 [1 2] [0 2 0 0->16] [0 0 0 0->0]
f 15.050902621 _14_ RTR  --- 8 DSR 92 [0 ffffffff a 800] ------- [1:255 21:255 32 0] 4 [1 2] [0 2 0 0->16] [0 0 0 0->0]
r 15.051466336 _3_ RTR  --- 8 DSR 48 [0 ffffffff 0 800] ------- [1:255 21:255 32 0] 2 [1 2] [0 2 0 0->16] [0 0 0 0->0]
r 15.051466474 _27_ RTR  --- 8 DSR 48 [0 ffffffff 0 800] ------- [1:255 21:255 32 0] 2 [1 2] [0 2 0 0->16] [0 0 0 0->0]
r 15.051466670 _6_ RTR  --- 8 DSR 48 [0 ffffffff 0 800] ------- [1:255 21:255 32 0] 2 [1 2] [0 2 0 0->16] [0 0 0 0->0]
r 15.051466670 _1_ RTR  --- 8 DSR 48 [0 ffffffff 0 800] ------- [1:255 21:255 32 0] 2 [1 2] [0 2 0 0->16] [0 0 0 0->0]
f 15.051569230 _9_ RTR  --- 8 DSR 68 [0 ffffffff 19 800] ------- [1:255 21:255 32 0] 3 [1 2] [0 2 0 0->16] [0 0 0 0->0]
f 15.051931367 _16_ RTR  --- 8 DSR 92 [0 ffffffff a 800] ------- [1:255 21:255 32 0] 4 [1 2] [0 2 0 0->16] [0 0 0 0->0]
f 15.052102272 _22_ RTR  --- 8 DSR 68 [0 ffffffff 19 800] ------- [1:255 21:255 32 0] 3 [1 2] [0 2 0 0->16] [0 0 0 0->0]
f 15.052421785 _19_ RTR  --- 8 DSR 92 [0 ffffffff a 800] ------- [1:255 21:255 32 0] 4 [1 2] [0 2 0 0->16] [0 0 0 0->0]
r 15.052614954 _17_ RTR  --- 8 DSR 92 [0 ffffffff e 800] ------- [1:255 21:255 32 0] 4 [1 2] [0 2 0 0->16] [0 0 0 0->0]
r 15.052615092 _18_ RTR  --- 8 DSR 92 [0 ffffffff e 800] ------- [1:255 21:255 32 0] 4 [1 2] [0 2 0 0->16] [0 0 0 0->0]
f 15.052679328 _5_ RTR  --- 8 DSR 48 [0 ffffffff 1 800] ------- [1:255 21:255 32 0] 2 [1 2] [0 2 0 0->16] [0 0 0 0->0]
f 15.052926879 _7_ RTR  --- 8 DSR 48 [0 ffffffff 1 800] ------- [1:255 21:255 32 0] 2 [1 2] [0 2 0 0->16] [0 0 0 0->0]
f 15.053050648 _18_ RTR  --- 8 DSR 92 [0 ffffffff a 800] ------- [1:255 21:255 32 0] 4 [1 2] [0 2 0 0->16] [0 0 0 0->0]
f 15.053103189 _13_ RTR  --- 8 DSR 68 [0 ffffffff 19 800] ------- [1:255 21:255 32 0] 3 [1 2] [0 2 0 0->16] [0 0 0 0->0]
s 15.053626420 _21_ RTR  --- 10 DSR 60 [0 0 0 0] ------- [21:255 1:255 254 10] 4 [0 2] [1 2 4 1->21] [0 0 0 0->0]
s 15.053699026 _21_ RTR  --- 9 DSR 52 [0 0 0 0] ------- [21:255 1:255 254 25] 3 [0 2] [1 2 3 1->21] [0 0 0 0->0]
f 15.053766911 _11_ RTR  --- 8 DSR 92 [0 ffffffff a 800] ------- [1:255 21:255 32 0] 4 [1 2] [0 2 0 0->16] [0 0 0 0->0]
r 15.053889897 _4_ RTR  --- 8 DSR 48 [0 ffffffff 7 800] ------- [1:255 21:255 32 0] 2 [1 2] [0 2 0 0->16] [0 0 0 0->0]
r 15.053889897 _25_ RTR  --- 8 DSR 48 [0 ffffffff 7 800] ------- [1:255 21:255 32 0] 2 [1 2] [0 2 0 0->16] [0 0 0 0->0]
r 15.053889897 _10_ RTR  --- 8 DSR 48 [0 ffffffff 7 800] ------- [1:255 21:255 32 0] 2 [1 2] [0 2 0 0->16] [0 0 0 0->0]
r 15.053889897 _24_ RTR  --- 8 DSR 48 [0 ffffffff 7 800] ------- [1:255 21:255 32 0] 2 [1 2] [0 2 0 0->16] [0 0 0 0->0]
r 15.053890035 _27_ RTR  --- 8 DSR 48 [0 ffffffff 7 800] ------- [1:255 21:255 32 0] 2 [1 2] [0 2 0 0->16] [0 0 0 0->0]
r 15.053890035 _23_ RTR  --- 8 DSR 48 [0 ffffffff 7 800] ------- [1:255 21:255 32 0] 2 [1 2] [0 2 0 0->16] [0 0 0 0->0]
r 15.053890035 _22_ RTR  --- 8 DSR 48 [0 ffffffff 7 800] ------- [1:255 21:255 32 0] 2 [1 2] [0 2 0 0->16] [0 0 0 0->0]
r 15.053890035 _26_ RTR  --- 8 DSR 48 [0 ffffffff 7 800] ------- [1:255 21:255 32 0] 2 [1 2] [0 2 0 0->16] [0 0 0 0->0]
r 15.053890230 _1_ RTR  --- 8 DSR 48 [0 ffffffff 7 800] ------- [1:255 21:255 32 0] 2 [1 2] [0 2 0 0->16] [0 0 0 0->0]
r 15.053890230 _6_ RTR  --- 8 DSR 48 [0 ffffffff 7 800] ------- [1:255 21:255 32 0] 2 [1 2] [0 2 0 0->16] [0 0 0 0->0]
r 15.053890230 _13_ RTR  --- 8 DSR 48 [0 ffffffff 7 800] ------- [1:255 21:255 32 0] 2 [1 2] [0 2 0 0->16] [0 0 0 0->0]
r 15.053890230 _8_ RTR  --- 8 DSR 48 [0 ffffffff 7 800] ------- [1:255 21:255 32 0] 2 [1 2] [0 2 0 0->16] [0 0 0 0->0]
r 15.053890309 _21_ RTR  --- 8 DSR 48 [0 ffffffff 7 800] ------- [1:255 21:255 32 0] 2 [1 2] [0 2 0 0->16] [0 0 0 0->0]
r 15.053890309 _9_ RTR  --- 8 DSR 48 [0 ffffffff 7 800] ------- [1:255 21:255 32 0] 2 [1 2] [0 2 0 0->16] [0 0 0 0->0]
r 15.053890309 _3_ RTR  --- 8 DSR 48 [0 ffffffff 7 800] ------- [1:255 21:255 32 0] 2 [1 2] [0 2 0 0->16] [0 0 0 0->0]
r 15.053890309 _20_ RTR  --- 8 DSR 48 [0 ffffffff 7 800] ------- [1:255 21:255 32 0] 2 [1 2] [0 2 0 0->16] [0 0 0 0->0]
r 15.053890309 _5_ RTR  --- 8 DSR 48 [0 ffffffff 7 800] ------- [1:255 21:255 32 0] 2 [1 2] [0 2 0 0->16] [0 0 0 0->0]
r 15.053890309 _11_ RTR  --- 8 DSR 48 [0 ffffffff 7 800] ------- [1:255 21:255 32 0] 2 [1 2] [0 2 0 0->16] [0 0 0 0->0]
f 15.054265185 _8_ RTR  --- 8 DSR 92 [0 ffffffff a 800] ------- [1:255 21:255 32 0] 4 [1 2] [0 2 0 0->16] [0 0 0 0->0]
r 15.054840642 _2_ RTR  --- 8 DSR 48 [0 ffffffff 5 800] ------- [1:255 21:255 32 0] 2 [1 2] [0 2 0 0->16] [0 0 0 0->0]
r 15.054840642 _26_ RTR  --- 8 DSR 48 [0 ffffffff 5 800] ------- [1:255 21:255 32 0] 2 [1 2] [0 2 0 0->16] [0 0 0 0->0]
r 15.054840642 _8_ RTR  --- 8 DSR 48 [0 ffffffff 5 800] ------- [1:255 21:255 32 0] 2 [1 2] [0 2 0 0->16] [0 0 0 0->0]
r 15.054840780 _24_ RTR  --- 8 DSR 48 [0 ffffffff 5 800] ------- [1:255 21:255 32 0] 2 [1 2] [0 2 0 0->16] [0 0 0 0->0]
r 15.054840975 _4_ RTR  --- 8 DSR 48 [0 ffffffff 5 800] ------- [1:255 21:255 32 0] 2 [1 2] [0 2 0 0->16] [0 0 0 0->0]
r 15.054840975 _11_ RTR  --- 8 DSR 48 [0 ffffffff 5 800] ------- [1:255 21:255 32 0] 2 [1 2] [0 2 0 0->16] [0 0 0 0->0]
r 15.054841054 _22_ RTR  --- 8 DSR 48 [0 ffffffff 5 800] ------- [1:255 21:255 32 0] 2 [1 2] [0 2 0 0->16] [0 0 0 0->0]
r 15.054841054 _7_ RTR  --- 8 DSR 48 [0 ffffffff 5 800] ------- [1:255 21:255 32 0] 2 [1 2] [0 2 0 0->16] [0 0 0 0->0]
r 15.054841054 _1_ RTR  --- 8 DSR 48 [0 ffffffff 5 800] ------- [1:255 21:255 32 0] 2 [1 2] [0 2 0 0->16] [0 0 0 0->0]
r 15.055911387 _20_ RTR  --- 8 DSR 68 [0 ffffffff 16 800] ------- [1:255 21:255 32 0] 3 [1 2] [0 2 0 0->16] [0 0 0 0->0]
r 15.055911387 _10_ RTR  --- 8 DSR 68 [0 ffffffff 16 800] ------- [1:255 21:255 32 0] 3 [1 2] [0 2 0 0->16] [0 0 0 0->0]
r 15.055911387 _24_ RTR  --- 8 DSR 68 [0 ffffffff 16 800] ------- [1:255 21:255 32 0] 3 [1 2] [0 2 0 0->16] [0 0 0 0->0]
r 15.055911387 _11_ RTR  --- 8 DSR 68 [0 ffffffff 16 800] ------- [1:255 21:255 32 0] 3 [1 2] [0 2 0 0->16] [0 0 0 0->0]
r 15.055911526 _13_ RTR  --- 8 DSR 68 [0 ffffffff 16 800] ------- [1:255 21:255 32 0] 3 [1 2] [0 2 0 0->16] [0 0 0 0->0]
r 15.055911526 _7_ RTR  --- 8 DSR 68 [0 ffffffff 16 800] ------- [1:255 21:255 32 0] 3 [1 2] [0 2 0 0->16] [0 0 0 0->0]
r 15.055911526 _8_ RTR  --- 8 DSR 68 [0 ffffffff 16 800] ------- [1:255 21:255 32 0] 3 [1 2] [0 2 0 0->16] [0 0 0 0->0]
r 15.055911526 _14_ RTR  --- 8 DSR 68 [0 ffffffff 16 800] ------- [1:255 21:255 32 0] 3 [1 2] [0 2 0 0->16] [0 0 0 0->0]
r 15.055911721 _18_ RTR  --- 8 DSR 68 [0 ffffffff 16 800] ------- [1:255 21:255 32 0] 3 [1 2] [0 2 0 0->16] [0 0 0 0->0]
r 15.055911721 _23_ RTR  --- 8 DSR 68 [0 ffffffff 16 800] ------- [1:255 21:255 32 0] 3 [1 2] [0 2 0 0->16] [0 0 0 0->0]
r 15.055911721 _26_ RTR  --- 8 DSR 68 [0 ffffffff 16 800] ------- [1:255 21:255 32 0] 3 [1 2] [0 2 0 0->16] [0 0 0 0->0]
r 15.055911800 _16_ RTR  --- 8 DSR 68 [0 ffffffff 16 800] ------- [1:255 21:255 32 0] 3 [1 2] [0 2 0 0->16] [0 0 0 0->0]
r 15.055911800 _4_ RTR  --- 8 DSR 68 [0 ffffffff 16 800] ------- [1:255 21:255 32 0] 3 [1 2] [0 2 0 0->16] [0 0 0 0->0]
r 15.055911800 _25_ RTR  --- 8 DSR 68 [0 ffffffff 16 800] ------- [1:255 21:255 32 0] 3 [1 2] [0 2 0 0->16] [0 0 0 0->0]
r 15.055911800 _21_ RTR  --- 8 DSR 68 [0 ffffffff 16 800] ------- [1:255 21:255 32 0] 3 [1 2] [0 2 0 0->16] [0 0 0 0->0]
r 15.055911800 _5_ RTR  --- 8 DSR 68 [0 ffffffff 16 800] ------- [1:255 21:255 32 0] 3 [1 2] [0 2 0 0->16] [0 0 0 0->0]
r 15.055911800 _17_ RTR  --- 8 DSR 68 [0 ffffffff 16 800] ------- [1:255 21:255 32 0] 3 [1 2] [0 2 0 0->16] [0 0 0 0->0]
r 15.057153721 _8_ RTR  --- 8 DSR 92 [0 ffffffff b 800] ------- [1:255 21:255 32 0] 4 [1 2] [0 2 0 0->16] [0 0 0 0->0]
r 15.057153721 _22_ RTR  --- 8 DSR 92 [0 ffffffff b 800] ------- [1:255 21:255 32 0] 4 [1 2] [0 2 0 0->16] [0 0 0 0->0]
r 15.057153721 _14_ RTR  --- 8 DSR 92 [0 ffffffff b 800] ------- [1:255 21:255 32 0] 4 [1 2] [0 2 0 0->16] [0 0 0 0->0]
r 15.057153859 _24_ RTR  --- 8 DSR 92 [0 ffffffff b 800] ------- [1:255 21:255 32 0] 4 [1 2] [0 2 0 0->16] [0 0 0 0->0]
r 15.057153859 _20_ RTR  --- 8 DSR 92 [0 ffffffff b 800] ------- [1:255 21:255 32 0] 4 [1 2] [0 2 0 0->16] [0 0 0 0->0]
r 15.057154054 _5_ RTR  --- 8 DSR 92 [0 ffffffff b 800] ------- [1:255 21:255 32 0] 4 [1 2] [0 2 0 0->16] [0 0 0 0->0]
r 15.057154054 _10_ RTR  --- 8 DSR 92 [0 ffffffff b 800] ------- [1:255 21:255 32 0] 4 [1 2] [0 2 0 0->16] [0 0 0 0->0]
r 15.057154054 _17_ RTR  --- 8 DSR 92 [0 ffffffff b 800] ------- [1:255 21:255 32 0] 4 [1 2] [0 2 0 0->16] [0 0 0 0->0]
r 15.057154133 _26_ RTR  --- 8 DSR 92 [0 ffffffff b 800] ------- [1:255 21:255 32 0] 4 [1 2] [0 2 0 0->16] [0 0 0 0->0]
r 15.057154133 _18_ RTR  --- 8 DSR 92 [0 ffffffff b 800] ------- [1:255 21:255 32 0] 4 [1 2] [0 2 0 0->16] [0 0 0 0->0]
r 15.057154133 _13_ RTR  --- 8 DSR 92 [0 ffffffff b 800] ------- [1:255 21:255 32 0] 4 [1 2] [0 2 0 0->16] [0 0 0 0->0]
r 15.057154133 _7_ RTR  --- 8 DSR 92 [0 ffffffff b 800] ------- [1:255 21:255 32 0] 4 [1 2] [0 2 0 0->16] [0 0 0 0->0]
f 15.057856933 _17_ RTR  --- 8 DSR 120 [0 ffffffff e 800] ------- [1:255 21:255 32 0] 5 [1 2] [0 2 0 0->16] [0 0 0 0->0]
s 15.057891986 _21_ RTR  --- 11 DSR 52 [0 0 0 0] ------- [21:255 1:255 254 7] 3 [0 2] [1 2 3 1->21] [0 0 0 0->0]
r 15.058416054 _5_ RTR  --- 8 DSR 92 [0 ffffffff 8 800] ------- [1:255 21:255 32 0] 4 [1 2] [0 2 0 0->16] [0 0 0 0->0]
r 15.058416054 _24_ RTR  --- 8 DSR 92 [0 ffffffff 8 800] ------- [1:255 21:255 32 0] 4 [1 2] [0 2 0 0->16] [0 0 0 0->0]
r 15.058416054 _11_ RTR  --- 8 DSR 92 [0 ffffffff 8 800] ------- [1:255 21:255 32 0] 4 [1 2] [0 2 0 0->16] [0 0 0 0->0]
r 15.058416192 _26_ RTR  --- 8 DSR 92 [0 ffffffff 8 800] ------- [1:255 21:255 32 0] 4 [1 2] [0 2 0 0->16] [0 0 0 0->0]
r 15.058416192 _22_ RTR  --- 8 DSR 92 [0 ffffffff 8 800] ------- [1:255 21:255 32 0] 4 [1 2] [0 2 0 0->16] [0 0 0 0->0]
r 15.058416387 _2_ RTR  --- 8 DSR 92 [0 ffffffff 8 800] ------- [1:255 21:255 32 0] 4 [1 2] [0 2 0 0->16] [0 0 0 0->0]
r 15.058416387 _7_ RTR  --- 8 DSR 92 [0 ffffffff 8 800] ------- [1:255 21:255 32 0] 4 [1 2] [0 2 0 0->16] [0 0 0 0->0]
r 15.058416387 _14_ RTR  --- 8 DSR 92 [0 ffffffff 8 800] ------- [1:255 21:255 32 0] 4 [1 2] [0 2 0 0->16] [0 0 0 0->0]
r 15.058416466 _20_ RTR  --- 8 DSR 92 [0 ffffffff 8 800] ------- [1:255 21:255 32 0] 4 [1 2] [0 2 0 0->16] [0 0 0 0->0]
r 15.058416466 _10_ RTR  --- 8 DSR 92 [0 ffffffff 8 800] ------- [1:255 21:255 32 0] 4 [1 2] [0 2 0 0->16] [0 0 0 0->0]
r 15.058416466 _4_ RTR  --- 8 DSR 92 [0 ffffffff 8 800] ------- [1:255 21:255 32 0] 4 [1 2] [0 2 0 0->16] [0 0 0 0->0]
s 15.058791299 _0_ RTR  --- 12 DSR 32 [0 0 0 0] ------- [0:255 19:255 32 0] 1 [1 2] [0 2 0 0->16] [0 0 0 0->0]
r 15.059286526 _24_ RTR  --- 8 DSR 48 [0 ffffffff 1a 800] ------- [1:255 21:255 32 0] 2 [1 2] [0 2 0 0->16] [0 0 0 0->0]
r 15.059286526 _4_ RTR  --- 8 DSR 48 [0 ffffffff 1a 800] ------- [1:255 21:255 32 0] 2 [1 2] [0 2 0 0->16] [0 0 0 0->0]
r 15.059286526 _5_ RTR  --- 8 DSR 48 [0 ffffffff 1a 800] ------- [1:255 21:255 32 0] 2 [1 2] [0 2 0 0->16] [0 0 0 0->0]
r 15.059286664 _7_ RTR  --- 8 DSR 48 [0 ffffffff 1a 800] ------- [1:255 21:255 32 0] 2 [1 2] [0 2 0 0->16] [0 0 0 0->0]