n -t * -s 0  -x 100 -y 0 -Z 0 -z 30  -v circle -c black
n -t * -s 1  -x 300 -y 0 -Z 0 -z 30  -v circle -c black
n -t * -s 2  -x 500 -y 0 -Z 0 -z 30  -v circle -c black
n -t * -s 3  -x 100 -y 100 -Z 0 -z 30  -v circle -c black
n -t * -s 4  -x 300 -y 100 -Z 0 -z 30  -v circle -c black
n -t * -s 5  -x 500 -y 100 -Z 0 -z 30  -v circle -c black
n -t * -s 6  -x 100 -y 200 -Z 0 -z 30  -v circle -c black
n -t * -s 7  -x 300 -y 200 -Z 0 -z 30  -v circle -c black
n -t * -s 8  -x 500 -y 200 -Z 0 -z 30  -v circle -c black
n -t * -s 9  -x 100 -y 300 -Z 0 -z 30  -v circle -c black
n -t * -s 10  -x 300 -y 300 -Z 0 -z 30  -v circle -c black
n -t * -s 11  -x 500 -y 300 -Z 0 -z 30  -v circle -c black
n -t * -s 12  -x 100 -y 400 -Z 0 -z 30  -v circle -c black
n -t * -s 13  -x 300 -y 400 -Z 0 -z 30  -v circle -c black
n -t * -s 14  -x 500 -y 400 -Z 0 -z 30  -v circle -c black
n -t * -s 15  -x 100 -y 500 -Z 0 -z 30  -v circle -c black
n -t * -s 16  -x 300 -y 500 -Z 0 -z 30  -v circle -c black
n -t * -s 17  -x 500 -y 500 -Z 0 -z 30  -v circle -c black
n -t * -s 18  -x 400 -y 500 -Z 0 -z 30  -v circle -c black
n -t * -s 19  -x 200 -y 500 -Z 0 -z 30  -v circle -c black
n -t * -s 20  -x 400 -y 400 -Z 0 -z 30  -v circle -c black
n -t * -s 21  -x 200 -y 400 -Z 0 -z 30  -v circle -c black
n -t * -s 22  -x 400 -y 300 -Z 0 -z 30  -v circle -c black
n -t * -s 23  -x 200 -y 300 -Z 0 -z 30  -v circle -c black
n -t * -s 24  -x 400 -y 200 -Z 0 -z 30  -v circle -c black
n -t * -s 25  -x 200 -y 200 -Z 0 -z 30  -v circle -c black
n -t * -s 26  -x 400 -y 100 -Z 0 -z 30  -v circle -c black
n -t * -s 27  -x 200 -y 100 -Z 0 -z 30  -v circle -c black
V -t * -v 1.0a5 -a 0
W -t * -x 500 -y 500
A -t * -n 1 -p 0 -o 0xffffffff -c 31 -a 1
A -t * -h 1 -m 2147483647 -s 0
+ -t 15.000000000 -s 0 -d -1 -p cbr -e 512 -c 2 -a 0 -i 0 -k AGT 
- -t 15.000000000 -s 0 -d -1 -p cbr -e 512 -c 2 -a 0 -i 0 -k AGT
h -t 15.000000000 -s 0 -d -1 -p cbr -e 512 -c 2 -a 0 -i 0 -k AGT
+ -t 15.000000000 -s 1 -d -1 -p cbr -e 512 -c 2 -a 0 -i 2 -k AGT 
- -t 15.000000000 -s 1 -d -1 -p cbr -e 512 -c 2 -a 0 -i 2 -k AGT
h -t 15.000000000 -s 1 -d -1 -p cbr -e 512 -c 2 -a 0 -i 2 -k AGT
+ -t 15.000000000 -s 24 -d -1 -p cbr -e 512 -c 2 -a 0 -i 4 -k AGT 
- -t 15.000000000 -s 24 -d -1 -p cbr -e 512 -c 2 -a 0 -i 4 -k AGT
h -t 15.000000000 -s 24 -d -1 -p cbr -e 512 -c 2 -a 0 -i 4 -k AGT
+ -t 15.003127930 -s 0 -d -1 -p DSR -e 32 -c 2 -a 0 -i 1 -k RTR 
- -t 15.003127930 -s 0 -d -1 -p DSR -e 32 -c 2 -a 0 -i 1 -k RTR
h -t 15.003127930 -s 0 -d -1 -p DSR -e 32 -c 2 -a 0 -i 1 -k RTR
+ -t 15.003317331 -s 1 -d -1 -p DSR -e 32 -c 2 -a 0 -i 3 -k RTR 
- -t 15.003317331 -s 1 -d -1 -p DSR -e 32 -c 2 -a 0 -i 3 -k RTR
h -t 15.003317331 -s 1 -d -1 -p DSR -e 32 -c 2 -a 0 -i 3 -k RTR
+ -t 15.004838982 -s 24 -d -1 -p DSR -e 32 -c 2 -a 0 -i 5 -k RTR 
- -t 15.004838982 -s 24 -d -1 -p DSR -e 32 -c 2 -a 0 -i 5 -k RTR
h -t 15.004838982 -s 24 -d -1 -p DSR -e 32 -c 2 -a 0 -i 5 -k RTR
+ -t 15.008409998 -s 25 -d 24 -p DSR -e 44 -c 2 -a 0 -i 7 -k RTR 
- -t 15.008409998 -s 25 -d 24 -p DSR -e 44 -c 2 -a 0 -i 7 -k RTR
h -t 15.008409998 -s 25 -d 24 -p DSR -e 44 -c 2 -a 0 -i 7 -k RTR
+ -t 15.010135998 -s 24 -d 25 -p cbr -e 548 -c 2 -a 0 -i 4 -k RTR 
- -t 15.010135998 -s 24 -d 25 -p cbr -e 548 -c 2 -a 0 -i 4 -k RTR
h -t 15.010135998 -s 24 -d 25 -p cbr -e 548 -c 2 -a 0 -i 4 -k RTR
r -t 15.016397998 -s 25 -d 25 -p cbr -e 512 -c 2 -a 0 -i 4 -k AGT
+ -t 15.043213122 -s 1 -d -1 -p DSR -e 32 -c 2 -a 0 -i 8 -k RTR 
- -t 15.043213122 -s 1 -d -1 -p DSR -e 32 -c 2 -a 0 -i 8 -k RTR
h -t 15.043213122 -s 1 -d -1 -p DSR -e 32 -c 2 -a 0 -i 8 -k RTR
+ -t 15.044194689 -s 25 -d -1 -p DSR -e 48 -c 2 -a 0 -i 8 -k RTR 
- -t 15.044194689 -s 25 -d -1 -p DSR -e 48 -c 2 -a 0 -i 8 -k RTR
h -t 15.044194689 -s 25 -d -1 -p DSR -e 48 -c 2 -a 0 -i 8 -k RTR
+ -t 15.044441188 -s 27 -d -1 -p DSR -e 48 -c 2 -a 0 -i 8 -k RTR 
- -t 15.044441188 -s 27 -d -1 -p DSR -e 48 -c 2 -a 0 -i 8 -k RTR
h -t 15.044441188 -s 27 -d -1 -p DSR -e 48 -c 2 -a 0 -i 8 -k RTR
+ -t 15.044971944 -s 24 -d -1 -p DSR -e 48 -c 2 -a 0 -i 8 -k RTR 
- -t 15.044971944 -s 24 -d -1 -p DSR -e 48 -c 2 -a 0 -i 8 -k RTR
h -t 15.044971944 -s 24 -d -1 -p DSR -e 48 -c 2 -a 0 -i 8 -k RTR
+ -t 15.045393041 -s 10 -d -1 -p DSR -e 68 -c 2 -a 0 -i 8 -k RTR 
- -t 15.045393041 -s 10 -d -1 -p DSR -e 68 -c 2 -a 0 -i 8 -k RTR
h -t 15.045393041 -s 10 -d -1 -p DSR -e 68 -c 2 -a 0 -i 8 -k RTR
+ -t 15.046936740 -s 26 -d -1 -p DSR -e 48 -c 2 -a 0 -i 8 -k RTR 
- -t 15.046936740 -s 26 -d -1 -p DSR -e 48 -c 2 -a 0 -i 8 -k RTR
h -t 15.046936740 -s 26 -d -1 -p DSR -e 48 -c 2 -a 0 -i 8 -k RTR
+ -t 15.046971729 -s 12 -d -1 -p DSR -e 68 -c 2 -a 0 -i 8 -k RTR 
- -t 15.046971729 -s 12 -d -1 -p DSR -e 68 -c 2 -a 0 -i 8 -k RTR
h -t 15.046971729 -s 12 -d -1 -p DSR -e 68 -c 2 -a 0 -i 8 -k RTR
+ -t 15.047041588 -s 3 -d -1 -p DSR -e 48 -c 2 -a 0 -i 8 -k RTR 
- -t 15.047041588 -s 3 -d -1 -p DSR -e 48 -c 2 -a 0 -i 8 -k RTR
h -t 15.047041588 -s 3 -d -1 -p DSR -e 48 -c 2 -a 0 -i 8 -k RTR
+ -t 15.047089529 -s 0 -d -1 -p DSR -e 48 -c 2 -a 0 -i 8 -k RTR 
- -t 15.047089529 -s 0 -d -1 -p DSR -e 48 -c 2 -a 0 -i 8 -k RTR
h -t 15.047089529 -s 0 -d -1 -p DSR -e 48 -c 2 -a 0 -i 8 -k RTR
+ -t 15.048712098 -s 4 -d -1 -p DSR -e 48 -c 2 -a 0 -i 8 -k RTR 
- -t 15.048712098 -s 4 -d -1 -p DSR -e 48 -c 2 -a 0 -i 8 -k RTR
h -t 15.048712098 -s 4 -d -1 -p DSR -e 48 -c 2 -a 0 -i 8 -k RTR
+ -t 15.048716668 -s 2 -d -1 -p DSR -e 48 -c 2 -a 0 -i 8 -k RTR 
- -t 15.048716668 -s 2 -d -1 -p DSR -e 48 -c 2 -a 0 -i 8 -k RTR
h -t 15.048716668 -s 2 -d -1 -p DSR -e 48 -c 2 -a 0 -i 8 -k RTR
+ -t 15.048996462 -s 20 -d -1 -p DSR -e 92 -c 2 -a 0 -i 8 -k RTR 
- -t 15.048996462 -s 20 -d -1 -p DSR -e 92 -c 2 -a 0 -i 8 -k RTR
h -t 15.048996462 -s 20 -d -1 -p DSR -e 92 -c 2 -a 0 -i 8 -k RTR
+ -t 15.049515002 -s 23 -d -1 -p DSR -e 68 -c 2 -a 0 -i 8 -k RTR 
- -t 15.049515002 -s 23 -d -1 -p DSR -e 68 -c 2 -a 0 -i 8 -k RTR
h -t 15.049515002 -s 23 -d -1 -p DSR -e 68 -c 2 -a 0 -i 8 -k RTR
+ -t 15.050576987 -s 6 -d -1 -p DSR -e 68 -c 2 -a 0 -i 8 -k RTR 
- -t 15.050576987 -s 6 -d -1 -p DSR -e 68 -c 2 -a 0 -i 8 -k RTR
h -t 15.050576987 -s 6 -d -1 -p DSR -e 68 -c 2 -a 0 -i 8 -k RTR
+ -t 15.050902621 -s 14 -d -1 -p DSR -e 92 -c 2 -a 0 -i 8 -k RTR 
- -t 15.050902621 -s 14 -d -1 -p DSR -e 92 -c 2 -a 0 -i 8 -k RTR
h -t 15.050902621 -s 14 -d -1 -p DSR -e 92 -c 2 -a 0 -i 8 -k RTR
+ -t 15.051569230 -s 9 -d -1 -p DSR -e 68 -c 2 -a 0 -i 8 -k RTR 
- -t 15.051569230 -s 9 -d -1 -p DSR -e 68 -c 2 -a 0 -i 8 -k RTR
h -t 15.051569230 -s 9 -d -1 -p DSR -e 68 -c 2 -a 0 -i 8 -k RTR
+ -t 15.051931367 -s 16 -d -1 -p DSR -e 92 -c 2 -a 0 -i 8 -k RTR 
- -t 15.051931367 -s 16 -d -1 -p DSR -e 92 -c 2 -a 0 -i 8 -k RTR
h -t 15.051931367 -s 16 -d -1 -p DSR -e 92 -c 2 -a 0 -i 8 -k RTR
+ -t 15.052102272 -s 22 -d -1 -p DSR -e 68 -c 2 -a 0 -i 8 -k RTR 
- -t 15.052102272 -s 22 -d -1 -p DSR -e 68 -c 2 -a 0 -i 8 -k RTR
h -t 15.052102272 -s 22 -d -1 -p DSR -e 68 -c 2 -a 0 -i 8 -k RTR
+ -t 15.052421785 -s 19 -d -1 -p DSR -e 92 -c 2 -a 0 -i 8 -k RTR 
- -t 15.052421785 -s 19 -d -1 -p DSR -e 92 -c 2 -a 0 -i 8 -k RTR
h -t 15.052421785 -s 19 -d -1 -p DSR -e 92 -c 2 -a 0 -i 8 -k RTR
+ -t 15.052679328 -s 5 -d -1 -p DSR -e 48 -c 2 -a 0 -i 8 -k RTR 
- -t 15.052679328 -s 5 -d -1 -p DSR -e 48 -c 2 -a 0 -i 8 -k RTR
h -t 15.052679328 -s 5 -d -1 -p DSR -e 48 -c 2 -a 0 -i 8 -k RTR
+ -t 15.052926879 -s 7 -d -1 -p DSR -e 48 -c 2 -a 0 -i 8 -k RTR 
- -t 15.052926879 -s 7 -d -1 -p DSR -e 48 -c 2 -a 0 -i 8 -k RTR
h -t 15.052926879 -s 7 -d -1 -p DSR -e 48 -c 2 -a 0 -i 8 -k RTR
+ -t 15.053050648 -s 18 -d -1 -p DSR -e 92 -c 2 -a 0 -i 8 -k RTR 
- -t 15.053050648 -s 18 -d -1 -p DSR -e 92 -c 2 -a 0 -i 8 -k RTR
h -t 15.053050648 -s 18 -d -1 -p DSR -e 92 -c 2 -a 0 -i 8 -k RTR
+ -t 15.053103189 -s 13 -d -1 -p DSR -e 68 -c 2 -a 0 -i 8 -k RTR 
- -t 15.053103189 -s 13 -d -1 -p DSR -e 68 -c 2 -a 0 -i 8 -k RTR
h -t 15.053103189 -s 13 -d -1 -p DSR -e 68 -c 2 -a 0 -i 8 -k RTR
+ -t 15.053626420 -s 21 -d 10 -p DSR -e 60 -c 2 -a 0 -i 10 -k RTR 
- -t 15.053626420 -s 21 -d 10 -p DSR -e 60 -c 2 -a 0 -i 10 -k RTR
h -t 15.053626420 -s 21 -d 10 -p DSR -e 60 -c 2 -a 0 -i 10 -k RTR
+ -t 15.053699026 -s 21 -d 25 -p DSR -e 52 -c 2 -a 0 -i 9 -k RTR 
- -t 15.053699026 -s 21 -d 25 -p DSR -e 52 -c 2 -a 0 -i 9 -k RTR
h -t 15.053699026 -s 21 -d 25 -p DSR -e 52 -c 2 -a 0 -i 9 -k RTR
+ -t 15.053766911 -s 11 -d -1 -p DSR -e 92 -c 2 -a 0 -i 8 -k RTR 
- -t 15.053766911 -s 11 -d -1 -p DSR -e 92 -c 2 -a 0 -i 8 -k RTR
h -t 15.053766911 -s 11 -d -1 -p DSR -e 92 -c 2 -a 0 -i 8 -k RTR
+ -t 15.054265185 -s 8 -d -1 -p DSR -e 92 -c 2 -a 0 -i 8 -k RTR 
- -t 15.054265185 -s 8 -d -1 -p DSR -e 92 -c 2 -a 0 -i 8 -k RTR
h -t 15.054265185 -s 8 -d -1 -p DSR -e 92 -c 2 -a 0 -i 8 -k RTR
+ -t 15.057856933 -s 17 -d -1 -p DSR -e 120 -c 2 -a 0 -i 8 -k RTR 
- -t 15.057856933 -s 17 -d -1 -p DSR -e 120 -c 2 -a 0 -i 8 -k RTR
h -t 15.057856933 -s 17 -d -1 -p DSR -e 120 -c 2 -a 0 -i 8 -k RTR
+ -t 15.057891986 -s 21 -d 7 -p DSR -e 52 -c 2 -a 0 -i 11 -k RTR 
- -t 15.057891986 -s 21 -d 7 -p DSR -e 52 -c 2 -a 0 -i 11 -k RTR
h -t 15.057891986 -s 21 -d 7 -p DSR -e 52 -c 2 -a 0 -i 11 -k RTR
+ -t 15.058791299 -s 0 -d -1 -p DSR -e 32 -c 2 -a 0 -i 12 -k RTR 
- -t 15.058791299 -s 0 -d -1 -p DSR -e 32 -c 2 -a 0 -i 12 -k RTR
h -t 15.058791299 -s 0 -d -1 -p DSR -e 32 -c 2 -a 0 -i 12 -k RTR
+ -t 15.061876664 -s 21 -d 22 -p DSR -e 60 -c 2 -a 0 -i 13 -k RTR 
- -t 15.061876664 -s 21 -d 22 -p DSR -e 60 -c 2 -a 0 -i 13 -k RTR
h -t 15.061876664 -s 21 -d 22 -p DSR -e 60 -c 2 -a 0 -i 13 -k RTR
+ -t 15.063383914 -s 15 -d -1 -p DSR -e 120 -c 2 -a 0 -i 8 -k RTR 
- -t 15.063383914 -s 15 -d -1 -p DSR -e 120 -c 2 -a 0 -i 8 -k RTR
h -t 15.063383914 -s 15 -d -1 -p DSR -e 120 -c 2 -a 0 -i 8 -k RTR
+ -t 15.066659275 -s 21 -d 12 -p DSR -e 60 -c 2 -a 0 -i 14 -k RTR 
- -t 15.066659275 -s 21 -d 12 -p DSR -e 60 -c 2 -a 0 -i 14 -k RTR
h -t 15.066659275 -s 21 -d 12 -p DSR -e 60 -c 2 -a 0 -i 14 -k RTR
+ -t 15.067980998 -s 21 -d 16 -p DSR -e 68 -c 2 -a 0 -i 17 -k RTR 
- -t 15.067980998 -s 21 -d 16 -p DSR -e 68 -c 2 -a 0 -i 17 -k RTR
h -t 15.067980998 -s 21 -d 16 -p DSR -e 68 -c 2 -a 0 -i 17 -k RTR
+ -t 15.069222304 -s 21 -d 13 -p DSR -e 60 -c 2 -a 0 -i 15 -k RTR 
- -t 15.069222304 -s 21 -d 13 -p DSR -e 60 -c 2 -a 0 -i 15 -k RTR
h -t 15.069222304 -s 21 -d 13 -p DSR -e 60 -c 2 -a 0 -i 15 -k RTR
+ -t 15.071000066 -s 10 -d 25 -p DSR -e 60 -c 2 -a 0 -i 10 -k RTR 
- -t 15.071000066 -s 10 -d 25 -p DSR -e 60 -c 2 -a 0 -i 10 -k RTR
h -t 15.071000066 -s 10 -d 25 -p DSR -e 60 -c 2 -a 0 -i 10 -k RTR
+ -t 15.071513632 -s 21 -d 23 -p DSR -e 60 -c 2 -a 0 -i 16 -k RTR 
- -t 15.071513632 -s 21 -d 23 -p DSR -e 60 -c 2 -a 0 -i 16 -k RTR
h -t 15.071513632 -s 21 -d 23 -p DSR -e 60 -c 2 -a 0 -i 16 -k RTR
+ -t 15.073217537 -s 13 -d 25 -p DSR -e 60 -c 2 -a 0 -i 15 -k RTR 
- -t 15.073217537 -s 13 -d 25 -p DSR -e 60 -c 2 -a 0 -i 15 -k RTR
h -t 15.073217537 -s 13 -d 25 -p DSR -e 60 -c 2 -a 0 -i 15 -k RTR
+ -t 15.073486022 -s 21 -d 9 -p DSR -e 60 -c 2 -a 0 -i 18 -k RTR 
- -t 15.073486022 -s 21 -d 9 -p DSR -e 60 -c 2 -a 0 -i 18 -k RTR
h -t 15.073486022 -s 21 -d 9 -p DSR -e 60 -c 2 -a 0 -i 18 -k RTR
+ -t 15.073772830 -s 21 -d 6 -p DSR -e 60 -c 2 -a 0 -i 19 -k RTR 
- -t 15.073772830 -s 21 -d 6 -p DSR -e 60 -c 2 -a 0 -i 19 -k RTR
h -t 15.073772830 -s 21 -d 6 -p DSR -e 60 -c 2 -a 0 -i 19 -k RTR
+ -t 15.075155773 -s 25 -d 1 -p DSR -e 60 -c 2 -a 0 -i 15 -k RTR 
- -t 15.075155773 -s 25 -d 1 -p DSR -e 60 -c 2 -a 0 -i 15 -k RTR
h -t 15.075155773 -s 25 -d 1 -p DSR -e 60 -c 2 -a 0 -i 15 -k RTR
+ -t 15.077393440 -s 23 -d 25 -p DSR -e 60 -c 2 -a 0 -i 16 -k RTR 
- -t 15.077393440 -s 23 -d 25 -p DSR -e 60 -c 2 -a 0 -i 16 -k RTR
h -t 15.077393440 -s 23 -d 25 -p DSR -e 60 -c 2 -a 0 -i 16 -k RTR
+ -t 15.077436205 -s 24 -d -1 -p cbr -e 512 -c 2 -a 0 -i 20 -k AGT 
- -t 15.077436205 -s 24 -d -1 -p cbr -e 512 -c 2 -a 0 -i 20 -k AGT
h -t 15.077436205 -s 24 -d -1 -p cbr -e 512 -c 2 -a 0 -i 20 -k AGT
+ -t 15.077436205 -s 24 -d 25 -p cbr -e 548 -c 2 -a 0 -i 20 -k RTR 
- -t 15.077436205 -s 24 -d 25 -p cbr -e 548 -c 2 -a 0 -i 20 -k RTR
h -t 15.077436205 -s 24 -d 25 -p cbr -e 548 -c 2 -a 0 -i 20 -k RTR
+ -t 15.083414442 -s 3 -d -1 -p DSR -e 48 -c 2 -a 0 -i 12 -k RTR 
- -t 15.083414442 -s 3 -d -1 -p DSR -e 48 -c 2 -a 0 -i 12 -k RTR
h -t 15.083414442 -s 3 -d -1 -p DSR -e 48 -c 2 -a 0 -i 12 -k RTR
+ -t 15.084464425 -s 1 -d -1 -p DSR -e 48 -c 2 -a 0 -i 12 -k RTR 
- -t 15.084464425 -s 1 -d -1 -p DSR -e 48 -c 2 -a 0 -i 12 -k RTR
h -t 15.084464425 -s 1 -d -1 -p DSR -e 48 -c 2 -a 0 -i 12 -k RTR
+ -t 15.084803535 -s 6 -d 25 -p DSR -e 60 -c 2 -a 0 -i 19 -k RTR 
- -t 15.084803535 -s 6 -d 25 -p DSR -e 60 -c 2 -a 0 -i 19 -k RTR
h -t 15.084803535 -s 6 -d 25 -p DSR -e 60 -c 2 -a 0 -i 19 -k RTR
+ -t 15.086761006 -s 25 -d 1 -p DSR -e 60 -c 2 -a 0 -i 16 -k RTR 
- -t 15.086761006 -s 25 -d 1 -p DSR -e 60 -c 2 -a 0 -i 16 -k RTR
h -t 15.086761006 -s 25 -d 1 -p DSR -e 60 -c 2 -a 0 -i 16 -k RTR
+ -t 15.088410408 -s 27 -d -1 -p DSR -e 68 -c 2 -a 0 -i 12 -k RTR 
- -t 15.088410408 -s 27 -d -1 -p DSR -e 68 -c 2 -a 0 -i 12 -k RTR
h -t 15.088410408 -s 27 -d -1 -p DSR -e 68 -c 2 -a 0 -i 12 -k RTR
+ -t 15.088548339 -s 6 -d -1 -p DSR -e 68 -c 2 -a 0 -i 12 -k RTR 
- -t 15.088548339 -s 6 -d -1 -p DSR -e 68 -c 2 -a 0 -i 12 -k RTR
h -t 15.088548339 -s 6 -d -1 -p DSR -e 68 -c 2 -a 0 -i 12 -k RTR
+ -t 15.088776389 -s 25 -d -1 -p DSR -e 68 -c 2 -a 0 -i 12 -k RTR 
- -t 15.088776389 -s 25 -d -1 -p DSR -e 68 -c 2 -a 0 -i 12 -k RTR
h -t 15.088776389 -s 25 -d -1 -p DSR -e 68 -c 2 -a 0 -i 12 -k RTR
+ -t 15.089643412 -s 5 -d -1 -p DSR -e 68 -c 2 -a 0 -i 12 -k RTR 
- -t 15.089643412 -s 5 -d -1 -p DSR -e 68 -c 2 -a 0 -i 12 -k RTR
h -t 15.089643412 -s 5 -d -1 -p DSR -e 68 -c 2 -a 0 -i 12 -k RTR
+ -t 15.090050680 -s 23 -d -1 -p DSR -e 68 -c 2 -a 0 -i 12 -k RTR 
- -t 15.090050680 -s 23 -d -1 -p DSR -e 68 -c 2 -a 0 -i 12 -k RTR
h -t 15.090050680 -s 23 -d -1 -p DSR -e 68 -c 2 -a 0 -i 12 -k RTR
+ -t 15.091404637 -s 25 -d 1 -p DSR -e 60 -c 2 -a 0 -i 10 -k RTR 
- -t 15.091404637 -s 25 -d 1 -p DSR -e 60 -c 2 -a 0 -i 10 -k RTR
h -t 15.091404637 -s 25 -d 1 -p DSR -e 60 -c 2 -a 0 -i 10 -k RTR
+ -t 15.091522251 -s 9 -d -1 -p DSR -e 68 -c 2 -a 0 -i 12 -k RTR 
- -t 15.091522251 -s 9 -d -1 -p DSR -e 68 -c 2 -a 0 -i 12 -k RTR
h -t 15.091522251 -s 9 -d -1 -p DSR -e 68 -c 2 -a 0 -i 12 -k RTR
+ -t 15.091778024 -s 4 -d -1 -p DSR -e 68 -c 2 -a 0 -i 12 -k RTR 
- -t 15.091778024 -s 4 -d -1 -p DSR -e 68 -c 2 -a 0 -i 12 -k RTR
h -t 15.091778024 -s 4 -d -1 -p DSR -e 68 -c 2 -a 0 -i 12 -k RTR
+ -t 15.092531686 -s 21 -d 15 -p DSR -e 76 -c 2 -a 0 -i 21 -k RTR 
- -t 15.092531686 -s 21 -d 15 -p DSR -e 76 -c 2 -a 0 -i 21 -k RTR
h -t 15.092531686 -s 21 -d 15 -p DSR -e 76 -c 2 -a 0 -i 21 -k RTR
+ -t 15.092789580 -s 21 -d 9 -p DSR -e 68 -c 2 -a 0 -i 23 -k RTR 
- -t 15.092789580 -s 21 -d 9 -p DSR -e 68 -c 2 -a 0 -i 23 -k RTR
h -t 15.092789580 -s 21 -d 9 -p DSR -e 68 -c 2 -a 0 -i 23 -k RTR
+ -t 15.094364300 -s 7 -d -1 -p DSR -e 68 -c 2 -a 0 -i 12 -k RTR 
- -t 15.094364300 -s 7 -d -1 -p DSR -e 68 -c 2 -a 0 -i 12 -k RTR
h -t 15.094364300 -s 7 -d -1 -p DSR -e 68 -c 2 -a 0 -i 12 -k RTR
+ -t 15.095228285 -s 24 -d -1 -p DSR -e 92 -c 2 -a 0 -i 12 -k RTR 
- -t 15.095228285 -s 24 -d -1 -p DSR -e 92 -c 2 -a 0 -i 12 -k RTR
h -t 15.095228285 -s 24 -d -1 -p DSR -e 92 -c 2 -a 0 -i 12 -k RTR
+ -t 15.095619234 -s 19 -d 9 -p DSR -e 60 -c 2 -a 0 -i 24 -k RTR 
- -t 15.095619234 -s 19 -d 9 -p DSR -e 60 -c 2 -a 0 -i 24 -k RTR
h -t 15.095619234 -s 19 -d 9 -p DSR -e 60 -c 2 -a 0 -i 24 -k RTR
+ -t 15.096301712 -s 2 -d -1 -p DSR -e 68 -c 2 -a 0 -i 12 -k RTR 
- -t 15.096301712 -s 2 -d -1 -p DSR -e 68 -c 2 -a 0 -i 12 -k RTR
h -t 15.096301712 -s 2 -d -1 -p DSR -e 68 -c 2 -a 0 -i 12 -k RTR
+ -t 15.096498212 -s 20 -d -1 -p DSR -e 92 -c 2 -a 0 -i 12 -k RTR 
- -t 15.096498212 -s 20 -d -1 -p DSR -e 92 -c 2 -a 0 -i 12 -k RTR
h -t 15.096498212 -s 20 -d -1 -p DSR -e 92 -c 2 -a 0 -i 12 -k RTR
+ -t 15.096941864 -s 26 -d -1 -p DSR -e 68 -c 2 -a 0 -i 12 -k RTR 
- -t 15.096941864 -s 26 -d -1 -p DSR -e 68 -c 2 -a 0 -i 12 -k RTR
h -t 15.096941864 -s 26 -d -1 -p DSR -e 68 -c 2 -a 0 -i 12 -k RTR
+ -t 15.098354177 -s 12 -d -1 -p DSR -e 92 -c 2 -a 0 -i 12 -k RTR 
- -t 15.098354177 -s 12 -d -1 -p DSR -e 92 -c 2 -a 0 -i 12 -k RTR
h -t 15.098354177 -s 12 -d -1 -p DSR -e 92 -c 2 -a 0 -i 12 -k RTR
+ -t 15.098522052 -s 10 -d -1 -p DSR -e 92 -c 2 -a 0 -i 12 -k RTR 
- -t 15.098522052 -s 10 -d -1 -p DSR -e 92 -c 2 -a 0 -i 12 -k RTR
h -t 15.098522052 -s 10 -d -1 -p DSR -e 92 -c 2 -a 0 -i 12 -k RTR
+ -t 15.099001481 -s 13 -d -1 -p DSR -e 92 -c 2 -a 0 -i 12 -k RTR 
- -t 15.099001481 -s 13 -d -1 -p DSR -e 92 -c 2 -a 0 -i 12 -k RTR
h -t 15.099001481 -s 13 -d -1 -p DSR -e 92 -c 2 -a 0 -i 12 -k RTR
+ -t 15.099033949 -s 22 -d -1 -p DSR -e 92 -c 2 -a 0 -i 12 -k RTR 
- -t 15.099033949 -s 22 -d -1 -p DSR -e 92 -c 2 -a 0 -i 12 -k RTR
h -t 15.099033949 -s 22 -d -1 -p DSR -e 92 -c 2 -a 0 -i 12 -k RTR
+ -t 15.099277905 -s 15 -d -1 -p DSR -e 92 -c 2 -a 0 -i 12 -k RTR 
- -t 15.099277905 -s 15 -d -1 -p DSR -e 92 -c 2 -a 0 -i 12 -k RTR
h -t 15.099277905 -s 15 -d -1 -p DSR -e 92 -c 2 -a 0 -i 12 -k RTR
+ -t 15.099641115 -s 19 -d 23 -p DSR -e 60 -c 2 -a 0 -i 25 -k RTR 
- -t 15.099641115 -s 19 -d 23 -p DSR -e 60 -c 2 -a 0 -i 25 -k RTR
h -t 15.099641115 -s 19 -d 23 -p DSR -e 60 -c 2 -a 0 -i 25 -k RTR
+ -t 15.100850753 -s 16 -d -1 -p DSR -e 92 -c 2 -a 0 -i 12 -k RTR 
- -t 15.100850753 -s 16 -d -1 -p DSR -e 92 -c 2 -a 0 -i 12 -k RTR
h -t 15.100850753 -s 16 -d -1 -p DSR -e 92 -c 2 -a 0 -i 12 -k RTR
r -t 15.101344442 -s 25 -d 25 -p cbr -e 512 -c 2 -a 0 -i 20 -k AGT
+ -t 15.102200484 -s 8 -d -1 -p DSR -e 92 -c 2 -a 0 -i 12 -k RTR 
- -t 15.102200484 -s 8 -d -1 -p DSR -e 92 -c 2 -a 0 -i 12 -k RTR
h -t 15.102200484 -s 8 -d -1 -p DSR -e 92 -c 2 -a 0 -i 12 -k RTR
+ -t 15.105308353 -s 18 -d -1 -p DSR -e 120 -c 2 -a 0 -i 12 -k RTR 
- -t 15.105308353 -s 18 -d -1 -p DSR -e 120 -c 2 -a 0 -i 12 -k RTR
h -t 15.105308353 -s 18 -d -1 -p DSR -e 120 -c 2 -a 0 -i 12 -k RTR
+ -t 15.107640779 -s 19 -d 13 -p DSR -e 68 -c 2 -a 0 -i 26 -k RTR 
- -t 15.107640779 -s 19 -d 13 -p DSR -e 68 -c 2 -a 0 -i 26 -k RTR
h -t 15.107640779 -s 19 -d 13 -p DSR -e 68 -c 2 -a 0 -i 26 -k RTR
+ -t 15.107876399 -s 11 -d -1 -p DSR -e 92 -c 2 -a 0 -i 12 -k RTR 
- -t 15.107876399 -s 11 -d -1 -p DSR -e 92 -c 2 -a 0 -i 12 -k RTR
h -t 15.107876399 -s 11 -d -1 -p DSR -e 92 -c 2 -a 0 -i 12 -k RTR
+ -t 15.109251092 -s 9 -d 3 -p DSR -e 60 -c 2 -a 0 -i 24 -k RTR 
- -t 15.109251092 -s 9 -d 3 -p DSR -e 60 -c 2 -a 0 -i 24 -k RTR
h -t 15.109251092 -s 9 -d 3 -p DSR -e 60 -c 2 -a 0 -i 24 -k RTR
+ -t 15.110210935 -s 14 -d -1 -p DSR -e 120 -c 2 -a 0 -i 12 -k RTR 
- -t 15.110210935 -s 14 -d -1 -p DSR -e 120 -c 2 -a 0 -i 12 -k RTR
h -t 15.110210935 -s 14 -d -1 -p DSR -e 120 -c 2 -a 0 -i 12 -k RTR
+ -t 15.114365716 -s 17 -d -1 -p DSR -e 120 -c 2 -a 0 -i 12 -k RTR 
- -t 15.114365716 -s 17 -d -1 -p DSR -e 120 -c 2 -a 0 -i 12 -k RTR
h -t 15.114365716 -s 17 -d -1 -p DSR -e 120 -c 2 -a 0 -i 12 -k RTR
+ -t 15.114535595 -s 19 -d 10 -p DSR -e 68 -c 2 -a 0 -i 29 -k RTR 
- -t 15.114535595 -s 19 -d 10 -p DSR -e 68 -c 2 -a 0 -i 29 -k RTR
h -t 15.114535595 -s 19 -d 10 -p DSR -e 68 -c 2 -a 0 -i 29 -k RTR
+ -t 15.115927094 -s 13 -d 9 -p DSR -e 68 -c 2 -a 0 -i 26 -k RTR 
- -t 15.115927094 -s 13 -d 9 -p DSR -e 68 -c 2 -a 0 -i 26 -k RTR
h -t 15.115927094 -s 13 -d 9 -p DSR -e 68 -c 2 -a 0 -i 26 -k RTR
+ -t 15.116989547 -s 19 -d 15 -p DSR -e 68 -c 2 -a 0 -i 28 -k RTR 
- -t 15.116989547 -s 19 -d 15 -p DSR -e 68 -c 2 -a 0 -i 28 -k RTR
h -t 15.116989547 -s 19 -d 15 -p DSR -e 68 -c 2 -a 0 -i 28 -k RTR
+ -t 15.117924842 -s 9 -d 25 -p DSR -e 60 -c 2 -a 0 -i 18 -k RTR 
- -t 15.117924842 -s 9 -d 25 -p DSR -e 60 -c 2 -a 0 -i 18 -k RTR
h -t 15.117924842 -s 9 -d 25 -p DSR -e 60 -c 2 -a 0 -i 18 -k RTR
+ -t 15.120042842 -s 3 -d 0 -p DSR -e 60 -c 2 -a 0 -i 24 -k RTR 
- -t 15.120042842 -s 3 -d 0 -p DSR -e 60 -c 2 -a 0 -i 24 -k RTR
h -t 15.120042842 -s 3 -d 0 -p DSR -e 60 -c 2 -a 0 -i 24 -k RTR
+ -t 15.122239842 -s 0 -d 3 -p cbr -e 556 -c 2 -a 0 -i 0 -k RTR 
- -t 15.122239842 -s 0 -d 3 -p cbr -e 556 -c 2 -a 0 -i 0 -k RTR
h -t 15.122239842 -s 0 -d 3 -p cbr -e 556 -c 2 -a 0 -i 0 -k RTR
+ -t 15.124246842 -s 25 -d 1 -p DSR -e 60 -c 2 -a 0 -i 19 -k RTR 
- -t 15.124246842 -s 25 -d 1 -p DSR -e 60 -c 2 -a 0 -i 19 -k RTR
h -t 15.124246842 -s 25 -d 1 -p DSR -e 60 -c 2 -a 0 -i 19 -k RTR
+ -t 15.126284728 -s 25 -d 1 -p DSR -e 60 -c 2 -a 0 -i 18 -k RTR 
- -t 15.126284728 -s 25 -d 1 -p DSR -e 60 -c 2 -a 0 -i 18 -k RTR
h -t 15.126284728 -s 25 -d 1 -p DSR -e 60 -c 2 -a 0 -i 18 -k RTR
+ -t 15.128306809 -s 9 -d 3 -p DSR -e 68 -c 2 -a 0 -i 23 -k RTR 
- -t 15.128306809 -s 9 -d 3 -p DSR -e 68 -c 2 -a 0 -i 23 -k RTR
h -t 15.128306809 -s 9 -d 3 -p DSR -e 68 -c 2 -a 0 -i 23 -k RTR
+ -t 15.128968233 -s 1 -d -1 -p cbr -e 512 -c 2 -a 0 -i 31 -k AGT 
- -t 15.128968233 -s 1 -d -1 -p cbr -e 512 -c 2 -a 0 -i 31 -k AGT
h -t 15.128968233 -s 1 -d -1 -p cbr -e 512 -c 2 -a 0 -i 31 -k AGT
+ -t 15.130348809 -s 3 -d 0 -p DSR -e 68 -c 2 -a 0 -i 23 -k RTR 
- -t 15.130348809 -s 3 -d 0 -p DSR -e 68 -c 2 -a 0 -i 23 -k RTR
h -t 15.130348809 -s 3 -d 0 -p DSR -e 68 -c 2 -a 0 -i 23 -k RTR
+ -t 15.137517183 -s 9 -d 3 -p DSR -e 68 -c 2 -a 0 -i 26 -k RTR 
- -t 15.137517183 -s 9 -d 3 -p DSR -e 68 -c 2 -a 0 -i 26 -k RTR
h -t 15.137517183 -s 9 -d 3 -p DSR -e 68 -c 2 -a 0 -i 26 -k RTR
+ -t 15.142362038 -s 19 -d 12 -p DSR -e 68 -c 2 -a 0 -i 33 -k RTR 
- -t 15.142362038 -s 19 -d 12 -p DSR -e 68 -c 2 -a 0 -i 33 -k RTR
h -t 15.142362038 -s 19 -d 12 -p DSR -e 68 -c 2 -a 0 -i 33 -k RTR
+ -t 15.142837875 -s 1 -d 25 -p cbr -e 556 -c 2 -a 0 -i 2 -k RTR 
- -t 15.142837875 -s 1 -d 25 -p cbr -e 556 -c 2 -a 0 -i 2 -k RTR
h -t 15.142837875 -s 1 -d 25 -p cbr -e 556 -c 2 -a 0 -i 2 -k RTR
+ -t 15.149487256 -s 0 -d -1 -p cbr -e 512 -c 2 -a 0 -i 34 -k AGT 
- -t 15.149487256 -s 0 -d -1 -p cbr -e 512 -c 2 -a 0 -i 34 -k AGT
h -t 15.149487256 -s 0 -d -1 -p cbr -e 512 -c 2 -a 0 -i 34 -k AGT
+ -t 15.149487256 -s 0 -d 3 -p cbr -e 556 -c 2 -a 0 -i 34 -k RTR 
- -t 15.149487256 -s 0 -d 3 -p cbr -e 556 -c 2 -a 0 -i 34 -k RTR
h -t 15.149487256 -s 0 -d 3 -p cbr -e 556 -c 2 -a 0 -i 34 -k RTR
+ -t 15.154219114 -s 25 -d 13 -p cbr -e 556 -c 2 -a 0 -i 2 -k RTR 
- -t 15.154219114 -s 25 -d 13 -p cbr -e 556 -c 2 -a 0 -i 2 -k RTR
h -t 15.154219114 -s 25 -d 13 -p cbr -e 556 -c 2 -a 0 -i 2 -k RTR
+ -t 15.156351571 -s 3 -d 0 -p DSR -e 68 -c 2 -a 0 -i 26 -k RTR 
- -t 15.156351571 -s 3 -d 0 -p DSR -e 68 -c 2 -a 0 -i 26 -k RTR
h -t 15.156351571 -s 3 -d 0 -p DSR -e 68 -c 2 -a 0 -i 26 -k RTR
+ -t 15.166087360 -s 15 -d 19 -p DSR -e 76 -c 2 -a 0 -i 21 -k RTR 
- -t 15.166087360 -s 15 -d 19 -p DSR -e 76 -c 2 -a 0 -i 21 -k RTR
h -t 15.166087360 -s 15 -d 19 -p DSR -e 76 -c 2 -a 0 -i 21 -k RTR
+ -t 15.168109245 -s 16 -d 10 -p DSR -e 68 -c 2 -a 0 -i 17 -k RTR 
- -t 15.168109245 -s 16 -d 10 -p DSR -e 68 -c 2 -a 0 -i 17 -k RTR
h -t 15.168109245 -s 16 -d 10 -p DSR -e 68 -c 2 -a 0 -i 17 -k RTR
+ -t 15.170131815 -s 10 -d 9 -p DSR -e 68 -c 2 -a 0 -i 29 -k RTR 
- -t 15.170131815 -s 10 -d 9 -p DSR -e 68 -c 2 -a 0 -i 29 -k RTR
h -t 15.170131815 -s 10 -d 9 -p DSR -e 68 -c 2 -a 0 -i 29 -k RTR
+ -t 15.172837875 -s 1 -d 25 -p cbr -e 556 -c 2 -a 0 -i 31 -k RTR 
- -t 15.172837875 -s 1 -d 25 -p cbr -e 556 -c 2 -a 0 -i 31 -k RTR
h -t 15.172837875 -s 1 -d 25 -p cbr -e 556 -c 2 -a 0 -i 31 -k RTR
+ -t 15.173451953 -s 12 -d 25 -p DSR -e 60 -c 2 -a 0 -i 14 -k RTR 
- -t 15.173451953 -s 12 -d 25 -p DSR -e 60 -c 2 -a 0 -i 14 -k RTR
h -t 15.173451953 -s 12 -d 25 -p DSR -e 60 -c 2 -a 0 -i 14 -k RTR
+ -t 15.175494698 -s 10 -d 25 -p DSR -e 68 -c 2 -a 0 -i 17 -k RTR 
- -t 15.175494698 -s 10 -d 25 -p DSR -e 68 -c 2 -a 0 -i 17 -k RTR
h -t 15.175494698 -s 10 -d 25 -p DSR -e 68 -c 2 -a 0 -i 17 -k RTR
+ -t 15.175831890 -s 19 -d 16 -p DSR -e 68 -c 2 -a 0 -i 35 -k RTR 
- -t 15.175831890 -s 19 -d 16 -p DSR -e 68 -c 2 -a 0 -i 35 -k RTR
h -t 15.175831890 -s 19 -d 16 -p DSR -e 68 -c 2 -a 0 -i 35 -k RTR
+ -t 15.177453680 -s 25 -d 1 -p DSR -e 60 -c 2 -a 0 -i 14 -k RTR 
- -t 15.177453680 -s 25 -d 1 -p DSR -e 60 -c 2 -a 0 -i 14 -k RTR
h -t 15.177453680 -s 25 -d 1 -p DSR -e 60 -c 2 -a 0 -i 14 -k RTR
+ -t 15.180445818 -s 19 -d 10 -p DSR -e 76 -c 2 -a 0 -i 21 -k RTR 
- -t 15.180445818 -s 19 -d 10 -p DSR -e 76 -c 2 -a 0 -i 21 -k RTR
h -t 15.180445818 -s 19 -d 10 -p DSR -e 76 -c 2 -a 0 -i 21 -k RTR
+ -t 15.182558427 -s 9 -d 3 -p DSR -e 68 -c 2 -a 0 -i 29 -k RTR 
- -t 15.182558427 -s 9 -d 3 -p DSR -e 68 -c 2 -a 0 -i 29 -k RTR
h -t 15.182558427 -s 9 -d 3 -p DSR -e 68 -c 2 -a 0 -i 29 -k RTR
+ -t 15.184620587 -s 12 -d 9 -p DSR -e 68 -c 2 -a 0 -i 33 -k RTR 
- -t 15.184620587 -s 12 -d 9 -p DSR -e 68 -c 2 -a 0 -i 33 -k RTR
h -t 15.184620587 -s 12 -d 9 -p DSR -e 68 -c 2 -a 0 -i 33 -k RTR
+ -t 15.186819156 -s 22 -d 25 -p DSR -e 60 -c 2 -a 0 -i 13 -k RTR 
- -t 15.186819156 -s 22 -d 25 -p DSR -e 60 -c 2 -a 0 -i 13 -k RTR
h -t 15.186819156 -s 22 -d 25 -p DSR -e 60 -c 2 -a 0 -i 13 -k RTR
+ -t 15.188777392 -s 25 -d 1 -p DSR -e 60 -c 2 -a 0 -i 13 -k RTR 
- -t 15.188777392 -s 25 -d 1 -p DSR -e 60 -c 2 -a 0 -i 13 -k RTR
h -t 15.188777392 -s 25 -d 1 -p DSR -e 60 -c 2 -a 0 -i 13 -k RTR
+ -t 15.190859278 -s 25 -d 1 -p DSR -e 68 -c 2 -a 0 -i 17 -k RTR 
- -t 15.190859278 -s 25 -d 1 -p DSR -e 68 -c 2 -a 0 -i 17 -k RTR
h -t 15.190859278 -s 25 -d 1 -p DSR -e 68 -c 2 -a 0 -i 17 -k RTR
+ -t 15.191886971 -s 24 -d -1 -p cbr -e 512 -c 2 -a 0 -i 36 -k AGT 
- -t 15.191886971 -s 24 -d -1 -p cbr -e 512 -c 2 -a 0 -i 36 -k AGT
h -t 15.191886971 -s 24 -d -1 -p cbr -e 512 -c 2 -a 0 -i 36 -k AGT
+ -t 15.191886971 -s 24 -d 25 -p cbr -e 548 -c 2 -a 0 -i 36 -k RTR 
- -t 15.191886971 -s 24 -d 25 -p cbr -e 548 -c 2 -a 0 -i 36 -k RTR
h -t 15.191886971 -s 24 -d 25 -p cbr -e 548 -c 2 -a 0 -i 36 -k RTR
+ -t 15.192901023 -s 9 -d 3 -p DSR -e 68 -c 2 -a 0 -i 33 -k RTR 
- -t 15.192901023 -s 9 -d 3 -p DSR -e 68 -c 2 -a 0 -i 33 -k RTR
h -t 15.192901023 -s 9 -d 3 -p DSR -e 68 -c 2 -a 0 -i 33 -k RTR
+ -t 15.195148005 -s 10 -d 25 -p DSR -e 76 -c 2 -a 0 -i 21 -k RTR 
- -t 15.195148005 -s 10 -d 25 -p DSR -e 76 -c 2 -a 0 -i 21 -k RTR
h -t 15.195148005 -s 10 -d 25 -p DSR -e 76 -c 2 -a 0 -i 21 -k RTR
+ -t 15.197170671 -s 3 -d 0 -p DSR -e 68 -c 2 -a 0 -i 29 -k RTR 
- -t 15.197170671 -s 3 -d 0 -p DSR -e 68 -c 2 -a 0 -i 29 -k RTR
h -t 15.197170671 -s 3 -d 0 -p DSR -e 68 -c 2 -a 0 -i 29 -k RTR
+ -t 15.205258574 -s 25 -d 13 -p cbr -e 556 -c 2 -a 0 -i 31 -k RTR 
- -t 15.205258574 -s 25 -d 13 -p cbr -e 556 -c 2 -a 0 -i 31 -k RTR
h -t 15.205258574 -s 25 -d 13 -p cbr -e 556 -c 2 -a 0 -i 31 -k RTR
r -t 15.211201241 -s 25 -d 25 -p cbr -e 512 -c 2 -a 0 -i 36 -k AGT
+ -t 15.213285753 -s 7 -d 1 -p DSR -e 52 -c 2 -a 0 -i 11 -k RTR 
- -t 15.213285753 -s 7 -d 1 -p DSR -e 52 -c 2 -a 0 -i 11 -k RTR
h -t 15.213285753 -s 7 -d 1 -p DSR -e 52 -c 2 -a 0 -i 11 -k RTR
+ -t 15.221881345 -s 25 -d 1 -p DSR -e 52 -c 2 -a 0 -i 9 -k RTR 
- -t 15.221881345 -s 25 -d 1 -p DSR -e 52 -c 2 -a 0 -i 9 -k RTR
h -t 15.221881345 -s 25 -d 1 -p DSR -e 52 -c 2 -a 0 -i 9 -k RTR
+ -t 15.223903816 -s 3 -d 0 -p DSR -e 68 -c 2 -a 0 -i 33 -k RTR 
- -t 15.223903816 -s 3 -d 0 -p DSR -e 68 -c 2 -a 0 -i 33 -k RTR
h -t 15.223903816 -s 3 -d 0 -p DSR -e 68 -c 2 -a 0 -i 33 -k RTR
+ -t 15.234727540 -s 0 -d -1 -p cbr -e 512 -c 2 -a 0 -i 37 -k AGT 
- -t 15.234727540 -s 0 -d -1 -p cbr -e 512 -c 2 -a 0 -i 37 -k AGT
h -t 15.234727540 -s 0 -d -1 -p cbr -e 512 -c 2 -a 0 -i 37 -k AGT
+ -t 15.234727540 -s 0 -d 3 -p cbr -e 556 -c 2 -a 0 -i 37 -k RTR 
- -t 15.234727540 -s 0 -d 3 -p cbr -e 556 -c 2 -a 0 -i 37 -k RTR
h -t 15.234727540 -s 0 -d 3 -p cbr -e 556 -c 2 -a 0 -i 37 -k RTR
+ -t 15.238323899 -s 3 -d 9 -p cbr -e 556 -c 2 -a 0 -i 0 -k RTR 
- -t 15.238323899 -s 3 -d 9 -p cbr -e 556 -c 2 -a 0 -i 0 -k RTR
h -t 15.238323899 -s 3 -d 9 -p cbr -e 556 -c 2 -a 0 -i 0 -k RTR
+ -t 15.244445527 -s 21 -d 25 -p DSR -e 52 -c 2 -a 0 -i 38 -k RTR 
- -t 15.244445527 -s 21 -d 25 -p DSR -e 52 -c 2 -a 0 -i 38 -k RTR
h -t 15.244445527 -s 21 -d 25 -p DSR -e 52 -c 2 -a 0 -i 38 -k RTR
+ -t 15.244470606 -s 13 -d 21 -p cbr -e 556 -c 2 -a 0 -i 2 -k RTR 
- -t 15.244470606 -s 13 -d 21 -p cbr -e 556 -c 2 -a 0 -i 2 -k RTR
h -t 15.244470606 -s 13 -d 21 -p cbr -e 556 -c 2 -a 0 -i 2 -k RTR
+ -t 15.246596354 -s 25 -d 1 -p DSR -e 76 -c 2 -a 0 -i 21 -k RTR 
- -t 15.246596354 -s 25 -d 1 -p DSR -e 76 -c 2 -a 0 -i 21 -k RTR
h -t 15.246596354 -s 25 -d 1 -p DSR -e 76 -c 2 -a 0 -i 21 -k RTR
r -t 15.252702099 -s 21 -d 21 -p cbr -e 512 -c 2 -a 0 -i 2 -k AGT
+ -t 15.254863432 -s 16 -d 23 -p DSR -e 68 -c 2 -a 0 -i 35 -k RTR 
- -t 15.254863432 -s 16 -d 23 -p DSR -e 68 -c 2 -a 0 -i 35 -k RTR
h -t 15.254863432 -s 16 -d 23 -p DSR -e 68 -c 2 -a 0 -i 35 -k RTR
+ -t 15.255920234 -s 1 -d -1 -p cbr -e 512 -c 2 -a 0 -i 39 -k AGT 
- -t 15.255920234 -s 1 -d -1 -p cbr -e 512 -c 2 -a 0 -i 39 -k AGT
h -t 15.255920234 -s 1 -d -1 -p cbr -e 512 -c 2 -a 0 -i 39 -k AGT
+ -t 15.255920234 -s 1 -d 7 -p cbr -e 552 -c 2 -a 0 -i 39 -k RTR 
- -t 15.255920234 -s 1 -d 7 -p cbr -e 552 -c 2 -a 0 -i 39 -k RTR
h -t 15.255920234 -s 1 -d 7 -p cbr -e 552 -c 2 -a 0 -i 39 -k RTR
+ -t 15.256944766 -s 15 -d 9 -p DSR -e 68 -c 2 -a 0 -i 28 -k RTR 
- -t 15.256944766 -s 15 -d 9 -p DSR -e 68 -c 2 -a 0 -i 28 -k RTR
h -t 15.256944766 -s 15 -d 9 -p DSR -e 68 -c 2 -a 0 -i 28 -k RTR
+ -t 15.258946766 -s 9 -d 3 -p DSR -e 68 -c 2 -a 0 -i 28 -k RTR 
- -t 15.258946766 -s 9 -d 3 -p DSR -e 68 -c 2 -a 0 -i 28 -k RTR
h -t 15.258946766 -s 9 -d 3 -p DSR -e 68 -c 2 -a 0 -i 28 -k RTR
+ -t 15.260901237 -s 25 -d 1 -p DSR -e 52 -c 2 -a 0 -i 38 -k RTR 
- -t 15.260901237 -s 25 -d 1 -p DSR -e 52 -c 2 -a 0 -i 38 -k RTR
h -t 15.260901237 -s 25 -d 1 -p DSR -e 52 -c 2 -a 0 -i 38 -k RTR
+ -t 15.263890887 -s 23 -d 3 -p DSR -e 68 -c 2 -a 0 -i 35 -k RTR 
- -t 15.263890887 -s 23 -d 3 -p DSR -e 68 -c 2 -a 0 -i 35 -k RTR
h -t 15.263890887 -s 23 -d 3 -p DSR -e 68 -c 2 -a 0 -i 35 -k RTR
+ -t 15.265893123 -s 3 -d 0 -p DSR -e 68 -c 2 -a 0 -i 35 -k RTR 
- -t 15.265893123 -s 3 -d 0 -p DSR -e 68 -c 2 -a 0 -i 35 -k RTR
h -t 15.265893123 -s 3 -d 0 -p DSR -e 68 -c 2 -a 0 -i 35 -k RTR
+ -t 15.272319243 -s 3 -d 0 -p DSR -e 68 -c 2 -a 0 -i 28 -k RTR 
- -t 15.272319243 -s 3 -d 0 -p DSR -e 68 -c 2 -a 0 -i 28 -k RTR
h -t 15.272319243 -s 3 -d 0 -p DSR -e 68 -c 2 -a 0 -i 28 -k RTR