n -t * -s 0  -x 100 -y 100 -Z 0 -z 30  -v circle -c black
n -t * -s 1  -x 300 -y 100 -Z 0 -z 30  -v circle -c black
n -t * -s 2  -x 500 -y 100 -Z 0 -z 30  -v circle -c black
n -t * -s 3  -x 200 -y 200 -Z 0 -z 30  -v circle -c black
n -t * -s 4  -x 400 -y 200 -Z 0 -z 30  -v circle -c black
n -t * -s 5  -x 300 -y 300 -Z 0 -z 30  -v circle -c black
n -t * -s 6  -x 200 -y 400 -Z 0 -z 30  -v circle -c black
n -t * -s 7  -x 400 -y 400 -Z 0 -z 30  -v circle -c black
n -t * -s 8  -x 100 -y 500 -Z 0 -z 30  -v circle -c black
n -t * -s 9  -x 300 -y 500 -Z 0 -z 30  -v circle -c black
n -t * -s 10  -x 500 -y 500 -Z 0 -z 30  -v circle -c black
V -t * -v 1.0a5 -a 0
W -t * -x 500 -y 500
A -t * -n 1 -p 0 -o 0xffffffff -c 31 -a 1
A -t * -h 1 -m 2147483647 -s 0
+ -t 0.000000000 -s 0 -d -1 -p WCETT -e 284 -c 2 -a 0 -i 0 -k RTR 
- -t 0.000000000 -s 0 -d -1 -p WCETT -e 284 -c 2 -a 0 -i 0 -k RTR
h -t 0.000000000 -s 0 -d -1 -p WCETT -e 284 -c 2 -a 0 -i 0 -k RTR
+ -t 0.000000000 -s 1 -d -1 -p WCETT -e 284 -c 2 -a 0 -i 0 -k RTR 
- -t 0.000000000 -s 1 -d -1 -p WCETT -e 284 -c 2 -a 0 -i 0 -k RTR
h -t 0.000000000 -s 1 -d -1 -p WCETT -e 284 -c 2 -a 0 -i 0 -k RTR
+ -t 0.000000000 -s 2 -d -1 -p WCETT -e 284 -c 2 -a 0 -i 0 -k RTR 
- -t 0.000000000 -s 2 -d -1 -p WCETT -e 284 -c 2 -a 0 -i 0 -k RTR
h -t 0.000000000 -s 2 -d -1 -p WCETT -e 284 -c 2 -a 0 -i 0 -k RTR
+ -t 0.000000000 -s 3 -d -1 -p WCETT -e 284 -c 2 -a 0 -i 0 -k RTR 
- -t 0.000000000 -s 3 -d -1 -p WCETT -e 284 -c 2 -a 0 -i 0 -k RTR
h -t 0.000000000 -s 3 -d -1 -p WCETT -e 284 -c 2 -a 0 -i 0 -k RTR
+ -t 0.000000000 -s 4 -d -1 -p WCETT -e 284 -c 2 -a 0 -i 0 -k RTR 
- -t 0.000000000 -s 4 -d -1 -p WCETT -e 284 -c 2 -a 0 -i 0 -k RTR
h -t 0.000000000 -s 4 -d -1 -p WCETT -e 284 -c 2 -a 0 -i 0 -k RTR
+ -t 0.000000000 -s 5 -d -1 -p WCETT -e 284 -c 2 -a 0 -i 0 -k RTR 
- -t 0.000000000 -s 5 -d -1 -p WCETT -e 284 -c 2 -a 0 -i 0 -k RTR
h -t 0.000000000 -s 5 -d -1 -p WCETT -e 284 -c 2 -a 0 -i 0 -k RTR
+ -t 0.000000000 -s 6 -d -1 -p WCETT -e 284 -c 2 -a 0 -i 0 -k RTR 
- -t 0.000000000 -s 6 -d -1 -p WCETT -e 284 -c 2 -a 0 -i 0 -k RTR
h -t 0.000000000 -s 6 -d -1 -p WCETT -e 284 -c 2 -a 0 -i 0 -k RTR
+ -t 0.000000000 -s 7 -d -1 -p WCETT -e 284 -c 2 -a 0 -i 0 -k RTR 
- -t 0.000000000 -s 7 -d -1 -p WCETT -e 284 -c 2 -a 0 -i 0 -k RTR
h -t 0.000000000 -s 7 -d -1 -p WCETT -e 284 -c 2 -a 0 -i 0 -k RTR
+ -t 0.000000000 -s 8 -d -1 -p WCETT -e 284 -c 2 -a 0 -i 0 -k RTR 
- -t 0.000000000 -s 8 -d -1 -p WCETT -e 284 -c 2 -a 0 -i 0 -k RTR
h -t 0.000000000 -s 8 -d -1 -p WCETT -e 284 -c 2 -a 0 -i 0 -k RTR
+ -t 0.000000000 -s 9 -d -1 -p WCETT -e 284 -c 2 -a 0 -i 0 -k RTR 
- -t 0.000000000 -s 9 -d -1 -p WCETT -e 284 -c 2 -a 0 -i 0 -k RTR
h -t 0.000000000 -s 9 -d -1 -p WCETT -e 284 -c 2 -a 0 -i 0 -k RTR
+ -t 0.000000000 -s 10 -d -1 -p WCETT -e 284 -c 2 -a 0 -i 0 -k RTR 
- -t 0.000000000 -s 10 -d -1 -p WCETT -e 284 -c 2 -a 0 -i 0 -k RTR
h -t 0.000000000 -s 10 -d -1 -p WCETT -e 284 -c 2 -a 0 -i 0 -k RTR
r -t 0.002788471 -s 6 -d -1 -p WCETT -e 284 -c 2 -a 0 -i 0 -k RTR
r -t 0.002788471 -s 3 -d -1 -p WCETT -e 284 -c 2 -a 0 -i 0 -k RTR
r -t 0.002788471 -s 4 -d -1 -p WCETT -e 284 -c 2 -a 0 -i 0 -k RTR
r -t 0.002788471 -s 7 -d -1 -p WCETT -e 284 -c 2 -a 0 -i 0 -k RTR
r -t 0.002788667 -s 1 -d -1 -p WCETT -e 284 -c 2 -a 0 -i 0 -k RTR
r -t 0.002788667 -s 9 -d -1 -p WCETT -e 284 -c 2 -a 0 -i 0 -k RTR
r -t 0.005567138 -s 3 -d -1 -p WCETT -e 284 -c 2 -a 0 -i 0 -k RTR
r -t 0.005567138 -s 4 -d -1 -p WCETT -e 284 -c 2 -a 0 -i 0 -k RTR
r -t 0.005567333 -s 0 -d -1 -p WCETT -e 284 -c 2 -a 0 -i 0 -k RTR
r -t 0.005567333 -s 5 -d -1 -p WCETT -e 284 -c 2 -a 0 -i 0 -k RTR
r -t 0.005567333 -s 2 -d -1 -p WCETT -e 284 -c 2 -a 0 -i 0 -k RTR
r -t 0.008565609 -s 0 -d -1 -p WCETT -e 284 -c 2 -a 0 -i 0 -k RTR
r -t 0.008565609 -s 1 -d -1 -p WCETT -e 284 -c 2 -a 0 -i 0 -k RTR
r -t 0.008565609 -s 5 -d -1 -p WCETT -e 284 -c 2 -a 0 -i 0 -k RTR
r -t 0.008565805 -s 6 -d -1 -p WCETT -e 284 -c 2 -a 0 -i 0 -k RTR
r -t 0.008565805 -s 4 -d -1 -p WCETT -e 284 -c 2 -a 0 -i 0 -k RTR
r -t 0.011324276 -s 5 -d -1 -p WCETT -e 284 -c 2 -a 0 -i 0 -k RTR
r -t 0.011324276 -s 1 -d -1 -p WCETT -e 284 -c 2 -a 0 -i 0 -k RTR
r -t 0.011324276 -s 2 -d -1 -p WCETT -e 284 -c 2 -a 0 -i 0 -k RTR
r -t 0.011324471 -s 3 -d -1 -p WCETT -e 284 -c 2 -a 0 -i 0 -k RTR
r -t 0.011324471 -s 7 -d -1 -p WCETT -e 284 -c 2 -a 0 -i 0 -k RTR
r -t 0.014222943 -s 9 -d -1 -p WCETT -e 284 -c 2 -a 0 -i 0 -k RTR
r -t 0.014222943 -s 5 -d -1 -p WCETT -e 284 -c 2 -a 0 -i 0 -k RTR
r -t 0.014222943 -s 10 -d -1 -p WCETT -e 284 -c 2 -a 0 -i 0 -k RTR
r -t 0.014223138 -s 4 -d -1 -p WCETT -e 284 -c 2 -a 0 -i 0 -k RTR
r -t 0.014223138 -s 6 -d -1 -p WCETT -e 284 -c 2 -a 0 -i 0 -k RTR
r -t 0.017061609 -s 8 -d -1 -p WCETT -e 284 -c 2 -a 0 -i 0 -k RTR
r -t 0.017061609 -s 5 -d -1 -p WCETT -e 284 -c 2 -a 0 -i 0 -k RTR
r -t 0.017061609 -s 9 -d -1 -p WCETT -e 284 -c 2 -a 0 -i 0 -k RTR
r -t 0.017061805 -s 3 -d -1 -p WCETT -e 284 -c 2 -a 0 -i 0 -k RTR
r -t 0.017061805 -s 7 -d -1 -p WCETT -e 284 -c 2 -a 0 -i 0 -k RTR
r -t 0.020020081 -s 6 -d -1 -p WCETT -e 284 -c 2 -a 0 -i 0 -k RTR
r -t 0.020020081 -s 7 -d -1 -p WCETT -e 284 -c 2 -a 0 -i 0 -k RTR
r -t 0.020020276 -s 5 -d -1 -p WCETT -e 284 -c 2 -a 0 -i 0 -k RTR
r -t 0.020020276 -s 8 -d -1 -p WCETT -e 284 -c 2 -a 0 -i 0 -k RTR
r -t 0.020020276 -s 10 -d -1 -p WCETT -e 284 -c 2 -a 0 -i 0 -k RTR
r -t 0.022778748 -s 6 -d -1 -p WCETT -e 284 -c 2 -a 0 -i 0 -k RTR
r -t 0.022778943 -s 9 -d -1 -p WCETT -e 284 -c 2 -a 0 -i 0 -k RTR
r -t 0.026506905 -s 7 -d -1 -p WCETT -e 284 -c 2 -a 0 -i 0 -k RTR
r -t 0.026507100 -s 9 -d -1 -p WCETT -e 284 -c 2 -a 0 -i 0 -k RTR
+ -t 1.000000000 -s 0 -d -1 -p WCETT -e 284 -c 2 -a 0 -i 0 -k RTR 
- -t 1.000000000 -s 0 -d -1 -p WCETT -e 284 -c 2 -a 0 -i 0 -k RTR
h -t 1.000000000 -s 0 -d -1 -p WCETT -e 284 -c 2 -a 0 -i 0 -k RTR
+ -t 1.000000000 -s 1 -d -1 -p WCETT -e 284 -c 2 -a 0 -i 0 -k RTR 
- -t 1.000000000 -s 1 -d -1 -p WCETT -e 284 -c 2 -a 0 -i 0 -k RTR
h -t 1.000000000 -s 1 -d -1 -p WCETT -e 284 -c 2 -a 0 -i 0 -k RTR
+ -t 1.000000000 -s 2 -d -1 -p WCETT -e 284 -c 2 -a 0 -i 0 -k RTR 
- -t 1.000000000 -s 2 -d -1 -p WCETT -e 284 -c 2 -a 0 -i 0 -k RTR
h -t 1.000000000 -s 2 -d -1 -p WCETT -e 284 -c 2 -a 0 -i 0 -k RTR
+ -t 1.000000000 -s 3 -d -1 -p WCETT -e 284 -c 2 -a 0 -i 0 -k RTR 
- -t 1.000000000 -s 3 -d -1 -p WCETT -e 284 -c 2 -a 0 -i 0 -k RTR
h -t 1.000000000 -s 3 -d -1 -p WCETT -e 284 -c 2 -a 0 -i 0 -k RTR
+ -t 1.000000000 -s 4 -d -1 -p WCETT -e 284 -c 2 -a 0 -i 0 -k RTR 
- -t 1.000000000 -s 4 -d -1 -p WCETT -e 284 -c 2 -a 0 -i 0 -k RTR
h -t 1.000000000 -s 4 -d -1 -p WCETT -e 284 -c 2 -a 0 -i 0 -k RTR
+ -t 1.000000000 -s 5 -d -1 -p WCETT -e 284 -c 2 -a 0 -i 0 -k RTR 
- -t 1.000000000 -s 5 -d -1 -p WCETT -e 284 -c 2 -a 0 -i 0 -k RTR
h -t 1.000000000 -s 5 -d -1 -p WCETT -e 284 -c 2 -a 0 -i 0 -k RTR
+ -t 1.000000000 -s 6 -d -1 -p WCETT -e 284 -c 2 -a 0 -i 0 -k RTR 
- -t 1.000000000 -s 6 -d -1 -p WCETT -e 284 -c 2 -a 0 -i 0 -k RTR
h -t 1.000000000 -s 6 -d -1 -p WCETT -e 284 -c 2 -a 0 -i 0 -k RTR
+ -t 1.000000000 -s 7 -d -1 -p WCETT -e 284 -c 2 -a 0 -i 0 -k RTR 
- -t 1.000000000 -s 7 -d -1 -p WCETT -e 284 -c 2 -a 0 -i 0 -k RTR
h -t 1.000000000 -s 7 -d -1 -p WCETT -e 284 -c 2 -a 0 -i 0 -k RTR
+ -t 1.000000000 -s 8 -d -1 -p WCETT -e 284 -c 2 -a 0 -i 0 -k RTR 
- -t 1.000000000 -s 8 -d -1 -p WCETT -e 284 -c 2 -a 0 -i 0 -k RTR
h -t 1.000000000 -s 8 -d -1 -p WCETT -e 284 -c 2 -a 0 -i 0 -k RTR
+ -t 1.000000000 -s 9 -d -1 -p WCETT -e 284 -c 2 -a 0 -i 0 -k RTR 
- -t 1.000000000 -s 9 -d -1 -p WCETT -e 284 -c 2 -a 0 -i 0 -k RTR
h -t 1.000000000 -s 9 -d -1 -p WCETT -e 284 -c 2 -a 0 -i 0 -k RTR
+ -t 1.000000000 -s 10 -d -1 -p WCETT -e 284 -c 2 -a 0 -i 0 -k RTR 
- -t 1.000000000 -s 10 -d -1 -p WCETT -e 284 -c 2 -a 0 -i 0 -k RTR
h -t 1.000000000 -s 10 -d -1 -p WCETT -e 284 -c 2 -a 0 -i 0 -k RTR
r -t 1.002808471 -s 3 -d -1 -p WCETT -e 284 -c 2 -a 0 -i 0 -k RTR
r -t 1.002808471 -s 4 -d -1 -p WCETT -e 284 -c 2 -a 0 -i 0 -k RTR
r -t 1.002808667 -s 0 -d -1 -p WCETT -e 284 -c 2 -a 0 -i 0 -k RTR
r -t 1.002808667 -s 5 -d -1 -p WCETT -e 284 -c 2 -a 0 -i 0 -k RTR
r -t 1.002808667 -s 2 -d -1 -p WCETT -e 284 -c 2 -a 0 -i 0 -k RTR
r -t 1.005706943 -s 5 -d -1 -p WCETT -e 284 -c 2 -a 0 -i 0 -k RTR
r -t 1.005706943 -s 1 -d -1 -p WCETT -e 284 -c 2 -a 0 -i 0 -k RTR
r -t 1.005706943 -s 2 -d -1 -p WCETT -e 284 -c 2 -a 0 -i 0 -k RTR
r -t 1.005707138 -s 3 -d -1 -p WCETT -e 284 -c 2 -a 0 -i 0 -k RTR
r -t 1.005707138 -s 7 -d -1 -p WCETT -e 284 -c 2 -a 0 -i 0 -k RTR
r -t 1.008505414 -s 4 -d -1 -p WCETT -e 284 -c 2 -a 0 -i 0 -k RTR
r -t 1.008505609 -s 1 -d -1 -p WCETT -e 284 -c 2 -a 0 -i 0 -k RTR
r -t 1.012273024 -s 6 -d -1 -p WCETT -e 284 -c 2 -a 0 -i 0 -k RTR
r -t 1.012273024 -s 7 -d -1 -p WCETT -e 284 -c 2 -a 0 -i 0 -k RTR
r -t 1.012273219 -s 5 -d -1 -p WCETT -e 284 -c 2 -a 0 -i 0 -k RTR
r -t 1.012273219 -s 8 -d -1 -p WCETT -e 284 -c 2 -a 0 -i 0 -k RTR
r -t 1.012273219 -s 10 -d -1 -p WCETT -e 284 -c 2 -a 0 -i 0 -k RTR
r -t 1.015271690 -s 7 -d -1 -p WCETT -e 284 -c 2 -a 0 -i 0 -k RTR
r -t 1.015271886 -s 9 -d -1 -p WCETT -e 284 -c 2 -a 0 -i 0 -k RTR
r -t 1.018559457 -s 6 -d -1 -p WCETT -e 284 -c 2 -a 0 -i 0 -k RTR
r -t 1.018559457 -s 3 -d -1 -p WCETT -e 284 -c 2 -a 0 -i 0 -k RTR
r -t 1.018559457 -s 4 -d -1 -p WCETT -e 284 -c 2 -a 0 -i 0 -k RTR
r -t 1.018559457 -s 7 -d -1 -p WCETT -e 284 -c 2 -a 0 -i 0 -k RTR
r -t 1.018559652 -s 1 -d -1 -p WCETT -e 284 -c 2 -a 0 -i 0 -k RTR
r -t 1.018559652 -s 9 -d -1 -p WCETT -e 284 -c 2 -a 0 -i 0 -k RTR
r -t 1.021337929 -s 8 -d -1 -p WCETT -e 284 -c 2 -a 0 -i 0 -k RTR
r -t 1.021337929 -s 5 -d -1 -p WCETT -e 284 -c 2 -a 0 -i 0 -k RTR
r -t 1.021337929 -s 9 -d -1 -p WCETT -e 284 -c 2 -a 0 -i 0 -k RTR
r -t 1.021338124 -s 3 -d -1 -p WCETT -e 284 -c 2 -a 0 -i 0 -k RTR
r -t 1.021338124 -s 7 -d -1 -p WCETT -e 284 -c 2 -a 0 -i 0 -k RTR
r -t 1.024156595 -s 0 -d -1 -p WCETT -e 284 -c 2 -a 0 -i 0 -k RTR
r -t 1.024156595 -s 1 -d -1 -p WCETT -e 284 -c 2 -a 0 -i 0 -k RTR
r -t 1.024156595 -s 5 -d -1 -p WCETT -e 284 -c 2 -a 0 -i 0 -k RTR
r -t 1.024156791 -s 6 -d -1 -p WCETT -e 284 -c 2 -a 0 -i 0 -k RTR
r -t 1.024156791 -s 4 -d -1 -p WCETT -e 284 -c 2 -a 0 -i 0 -k RTR
r -t 1.027279538 -s 9 -d -1 -p WCETT -e 284 -c 2 -a 0 -i 0 -k RTR
r -t 1.027279538 -s 5 -d -1 -p WCETT -e 284 -c 2 -a 0 -i 0 -k RTR
r -t 1.027279538 -s 10 -d -1 -p WCETT -e 284 -c 2 -a 0 -i 0 -k RTR
r -t 1.027279733 -s 4 -d -1 -p WCETT -e 284 -c 2 -a 0 -i 0 -k RTR
r -t 1.027279733 -s 6 -d -1 -p WCETT -e 284 -c 2 -a 0 -i 0 -k RTR
+ -t 2.000000000 -s 0 -d -1 -p WCETT -e 284 -c 2 -a 0 -i 0 -k RTR 
- -t 2.000000000 -s 0 -d -1 -p WCETT -e 284 -c 2 -a 0 -i 0 -k RTR
h -t 2.000000000 -s 0 -d -1 -p WCETT -e 284 -c 2 -a 0 -i 0 -k RTR
+ -t 2.000000000 -s 1 -d -1 -p WCETT -e 284 -c 2 -a 0 -i 0 -k RTR 
- -t 2.000000000 -s 1 -d -1 -p WCETT -e 284 -c 2 -a 0 -i 0 -k RTR
h -t 2.000000000 -s 1 -d -1 -p WCETT -e 284 -c 2 -a 0 -i 0 -k RTR
+ -t 2.000000000 -s 2 -d -1 -p WCETT -e 284 -c 2 -a 0 -i 0 -k RTR 
- -t 2.000000000 -s 2 -d -1 -p WCETT -e 284 -c 2 -a 0 -i 0 -k RTR
h -t 2.000000000 -s 2 -d -1 -p WCETT -e 284 -c 2 -a 0 -i 0 -k RTR
+ -t 2.000000000 -s 3 -d -1 -p WCETT -e 284 -c 2 -a 0 -i 0 -k RTR 
- -t 2.000000000 -s 3 -d -1 -p WCETT -e 284 -c 2 -a 0 -i 0 -k RTR
h -t 2.000000000 -s 3 -d -1 -p WCETT -e 284 -c 2 -a 0 -i 0 -k RTR
+ -t 2.000000000 -s 4 -d -1 -p WCETT -e 284 -c 2 -a 0 -i 0 -k RTR 
- -t 2.000000000 -s 4 -d -1 -p WCETT -e 284 -c 2 -a 0 -i 0 -k RTR
h -t 2.000000000 -s 4 -d -1 -p WCETT -e 284 -c 2 -a 0 -i 0 -k RTR
+ -t 2.000000000 -s 5 -d -1 -p WCETT -e 284 -c 2 -a 0 -i 0 -k RTR 
- -t 2.000000000 -s 5 -d -1 -p WCETT -e 284 -c 2 -a 0 -i 0 -k RTR
h -t 2.000000000 -s 5 -d -1 -p WCETT -e 284 -c 2 -a 0 -i 0 -k RTR
+ -t 2.000000000 -s 6 -d -1 -p WCETT -e 284 -c 2 -a 0 -i 0 -k RTR 
- -t 2.000000000 -s 6 -d -1 -p WCETT -e 284 -c 2 -a 0 -i 0 -k RTR
h -t 2.000000000 -s 6 -d -1 -p WCETT -e 284 -c 2 -a 0 -i 0 -k RTR
+ -t 2.000000000 -s 7 -d -1 -p WCETT -e 284 -c 2 -a 0 -i 0 -k RTR 
- -t 2.000000000 -s 7 -d -1 -p WCETT -e 284 -c 2 -a 0 -i 0 -k RTR
h -t 2.000000000 -s 7 -d -1 -p WCETT -e 284 -c 2 -a 0 -i 0 -k RTR
+ -t 2.000000000 -s 8 -d -1 -p WCETT -e 284 -c 2 -a 0 -i 0 -k RTR 
- -t 2.000000000 -s 8 -d -1 -p WCETT -e 284 -c 2 -a 0 -i 0 -k RTR
h -t 2.000000000 -s 8 -d -1 -p WCETT -e 284 -c 2 -a 0 -i 0 -k RTR
+ -t 2.000000000 -s 9 -d -1 -p WCETT -e 284 -c 2 -a 0 -i 0 -k RTR 
- -t 2.000000000 -s 9 -d -1 -p WCETT -e 284 -c 2 -a 0 -i 0 -k RTR
h -t 2.000000000 -s 9 -d -1 -p WCETT -e 284 -c 2 -a 0 -i 0 -k RTR
+ -t 2.000000000 -s 10 -d -1 -p WCETT -e 284 -c 2 -a 0 -i 0 -k RTR 
- -t 2.000000000 -s 10 -d -1 -p WCETT -e 284 -c 2 -a 0 -i 0 -k RTR
h -t 2.000000000 -s 10 -d -1 -p WCETT -e 284 -c 2 -a 0 -i 0 -k RTR
r -t 2.002788471 -s 9 -d -1 -p WCETT -e 284 -c 2 -a 0 -i 0 -k RTR
r -t 2.002788471 -s 5 -d -1 -p WCETT -e 284 -c 2 -a 0 -i 0 -k RTR
r -t 2.002788471 -s 10 -d -1 -p WCETT -e 284 -c 2 -a 0 -i 0 -k RTR
r -t 2.002788667 -s 4 -d -1 -p WCETT -e 284 -c 2 -a 0 -i 0 -k RTR
r -t 2.002788667 -s 6 -d -1 -p WCETT -e 284 -c 2 -a 0 -i 0 -k RTR
r -t 2.005686943 -s 7 -d -1 -p WCETT -e 284 -c 2 -a 0 -i 0 -k RTR
r -t 2.005687138 -s 9 -d -1 -p WCETT -e 284 -c 2 -a 0 -i 0 -k RTR
r -t 2.009134940 -s 5 -d -1 -p WCETT -e 284 -c 2 -a 0 -i 0 -k RTR
r -t 2.009134940 -s 1 -d -1 -p WCETT -e 284 -c 2 -a 0 -i 0 -k RTR
r -t 2.009134940 -s 2 -d -1 -p WCETT -e 284 -c 2 -a 0 -i 0 -k RTR
r -t 2.009135135 -s 3 -d -1 -p WCETT -e 284 -c 2 -a 0 -i 0 -k RTR
r -t 2.009135135 -s 7 -d -1 -p WCETT -e 284 -c 2 -a 0 -i 0 -k RTR
r -t 2.011973411 -s 6 -d -1 -p WCETT -e 284 -c 2 -a 0 -i 0 -k RTR
r -t 2.011973411 -s 3 -d -1 -p WCETT -e 284 -c 2 -a 0 -i 0 -k RTR
r -t 2.011973411 -s 4 -d -1 -p WCETT -e 284 -c 2 -a 0 -i 0 -k RTR
r -t 2.011973411 -s 7 -d -1 -p WCETT -e 284 -c 2 -a 0 -i 0 -k RTR
r -t 2.011973606 -s 1 -d -1 -p WCETT -e 284 -c 2 -a 0 -i 0 -k RTR
r -t 2.011973606 -s 9 -d -1 -p WCETT -e 284 -c 2 -a 0 -i 0 -k RTR
r -t 2.014852078 -s 6 -d -1 -p WCETT -e 284 -c 2 -a 0 -i 0 -k RTR
r -t 2.014852078 -s 7 -d -1 -p WCETT -e 284 -c 2 -a 0 -i 0 -k RTR
r -t 2.014852273 -s 5 -d -1 -p WCETT -e 284 -c 2 -a 0 -i 0 -k RTR
r -t 2.014852273 -s 8 -d -1 -p WCETT -e 284 -c 2 -a 0 -i 0 -k RTR
r -t 2.014852273 -s 10 -d -1 -p WCETT -e 284 -c 2 -a 0 -i 0 -k RTR
r -t 2.017750549 -s 8 -d -1 -p WCETT -e 284 -c 2 -a 0 -i 0 -k RTR
r -t 2.017750549 -s 5 -d -1 -p WCETT -e 284 -c 2 -a 0 -i 0 -k RTR
r -t 2.017750549 -s 9 -d -1 -p WCETT -e 284 -c 2 -a 0 -i 0 -k RTR
r -t 2.017750744 -s 3 -d -1 -p WCETT -e 284 -c 2 -a 0 -i 0 -k RTR
r -t 2.017750744 -s 7 -d -1 -p WCETT -e 284 -c 2 -a 0 -i 0 -k RTR
r -t 2.020509216 -s 0 -d -1 -p WCETT -e 284 -c 2 -a 0 -i 0 -k RTR
r -t 2.020509216 -s 1 -d -1 -p WCETT -e 284 -c 2 -a 0 -i 0 -k RTR
r -t 2.020509216 -s 5 -d -1 -p WCETT -e 284 -c 2 -a 0 -i 0 -k RTR
r -t 2.020509411 -s 6 -d -1 -p WCETT -e 284 -c 2 -a 0 -i 0 -k RTR
r -t 2.020509411 -s 4 -d -1 -p WCETT -e 284 -c 2 -a 0 -i 0 -k RTR
r -t 2.023327687 -s 3 -d -1 -p WCETT -e 284 -c 2 -a 0 -i 0 -k RTR
r -t 2.023327687 -s 4 -d -1 -p WCETT -e 284 -c 2 -a 0 -i 0 -k RTR
r -t 2.023327883 -s 0 -d -1 -p WCETT -e 284 -c 2 -a 0 -i 0 -k RTR
r -t 2.023327883 -s 5 -d -1 -p WCETT -e 284 -c 2 -a 0 -i 0 -k RTR
r -t 2.023327883 -s 2 -d -1 -p WCETT -e 284 -c 2 -a 0 -i 0 -k RTR
r -t 2.026446354 -s 4 -d -1 -p WCETT -e 284 -c 2 -a 0 -i 0 -k RTR
r -t 2.026446549 -s 1 -d -1 -p WCETT -e 284 -c 2 -a 0 -i 0 -k RTR
+ -t 3.000000000 -s 0 -d -1 -p WCETT -e 284 -c 2 -a 0 -i 0 -k RTR 
- -t 3.000000000 -s 0 -d -1 -p WCETT -e 284 -c 2 -a 0 -i 0 -k RTR
h -t 3.000000000 -s 0 -d -1 -p WCETT -e 284 -c 2 -a 0 -i 0 -k RTR
+ -t 3.000000000 -s 1 -d -1 -p WCETT -e 284 -c 2 -a 0 -i 0 -k RTR 
- -t 3.000000000 -s 1 -d -1 -p WCETT -e 284 -c 2 -a 0 -i 0 -k RTR
h -t 3.000000000 -s 1 -d -1 -p WCETT -e 284 -c 2 -a 0 -i 0 -k RTR
+ -t 3.000000000 -s 2 -d -1 -p WCETT -e 284 -c 2 -a 0 -i 0 -k RTR 
- -t 3.000000000 -s 2 -d -1 -p WCETT -e 284 -c 2 -a 0 -i 0 -k RTR
h -t 3.000000000 -s 2 -d -1 -p WCETT -e 284 -c 2 -a 0 -i 0 -k RTR
+ -t 3.000000000 -s 3 -d -1 -p WCETT -e 284 -c 2 -a 0 -i 0 -k RTR 
- -t 3.000000000 -s 3 -d -1 -p WCETT -e 284 -c 2 -a 0 -i 0 -k RTR
h -t 3.000000000 -s 3 -d -1 -p WCETT -e 284 -c 2 -a 0 -i 0 -k RTR
+ -t 3.000000000 -s 4 -d -1 -p WCETT -e 284 -c 2 -a 0 -i 0 -k RTR 
- -t 3.000000000 -s 4 -d -1 -p WCETT -e 284 -c 2 -a 0 -i 0 -k RTR
h -t 3.000000000 -s 4 -d -1 -p WCETT -e 284 -c 2 -a 0 -i 0 -k RTR
+ -t 3.000000000 -s 5 -d -1 -p WCETT -e 284 -c 2 -a 0 -i 0 -k RTR 
- -t 3.000000000 -s 5 -d -1 -p WCETT -e 284 -c 2 -a 0 -i 0 -k RTR
h -t 3.000000000 -s 5 -d -1 -p WCETT -e 284 -c 2 -a 0 -i 0 -k RTR
+ -t 3.000000000 -s 6 -d -1 -p WCETT -e 284 -c 2 -a 0 -i 0 -k RTR 
- -t 3.000000000 -s 6 -d -1 -p WCETT -e 284 -c 2 -a 0 -i 0 -k RTR
h -t 3.000000000 -s 6 -d -1 -p WCETT -e 284 -c 2 -a 0 -i 0 -k RTR
+ -t 3.000000000 -s 7 -d -1 -p WCETT -e 284 -c 2 -a 0 -i 0 -k RTR 
- -t 3.000000000 -s 7 -d -1 -p WCETT -e 284 -c 2 -a 0 -i 0 -k RTR
h -t 3.000000000 -s 7 -d -1 -p WCETT -e 284 -c 2 -a 0 -i 0 -k RTR
+ -t 3.000000000 -s 8 -d -1 -p WCETT -e 284 -c 2 -a 0 -i 0 -k RTR 
- -t 3.000000000 -s 8 -d -1 -p WCETT -e 284 -c 2 -a 0 -i 0 -k RTR
h -t 3.000000000 -s 8 -d -1 -p WCETT -e 284 -c 2 -a 0 -i 0 -k RTR
+ -t 3.000000000 -s 9 -d -1 -p WCETT -e 284 -c 2 -a 0 -i 0 -k RTR 
- -t 3.000000000 -s 9 -d -1 -p WCETT -e 284 -c 2 -a 0 -i 0 -k RTR
h -t 3.000000000 -s 9 -d -1 -p WCETT -e 284 -c 2 -a 0 -i 0 -k RTR
+ -t 3.000000000 -s 10 -d -1 -p WCETT -e 284 -c 2 -a 0 -i 0 -k RTR 
- -t 3.000000000 -s 10 -d -1 -p WCETT -e 284 -c 2 -a 0 -i 0 -k RTR
h -t 3.000000000 -s 10 -d -1 -p WCETT -e 284 -c 2 -a 0 -i 0 -k RTR
r -t 3.002828471 -s 3 -d -1 -p WCETT -e 284 -c 2 -a 0 -i 0 -k RTR
r -t 3.002828471 -s 4 -d -1 -p WCETT -e 284 -c 2 -a 0 -i 0 -k RTR
r -t 3.002828667 -s 0 -d -1 -p WCETT -e 284 -c 2 -a 0 -i 0 -k RTR
r -t 3.002828667 -s 5 -d -1 -p WCETT -e 284 -c 2 -a 0 -i 0 -k RTR
r -t 3.002828667 -s 2 -d -1 -p WCETT -e 284 -c 2 -a 0 -i 0 -k RTR
r -t 3.005627138 -s 6 -d -1 -p WCETT -e 284 -c 2 -a 0 -i 0 -k RTR
r -t 3.005627138 -s 3 -d -1 -p WCETT -e 284 -c 2 -a 0 -i 0 -k RTR
r -t 3.005627138 -s 4 -d -1 -p WCETT -e 284 -c 2 -a 0 -i 0 -k RTR
r -t 3.005627138 -s 7 -d -1 -p WCETT -e 284 -c 2 -a 0 -i 0 -k RTR
r -t 3.005627333 -s 1 -d -1 -p WCETT -e 284 -c 2 -a 0 -i 0 -k RTR
r -t 3.005627333 -s 9 -d -1 -p WCETT -e 284 -c 2 -a 0 -i 0 -k RTR
r -t 3.008385609 -s 0 -d -1 -p WCETT -e 284 -c 2 -a 0 -i 0 -k RTR
r -t 3.008385609 -s 1 -d -1 -p WCETT -e 284 -c 2 -a 0 -i 0 -k RTR
r -t 3.008385805 -s 7 -d -1 -p WCETT -e 284 -c 2 -a 0 -i 0 -k RTR
r -t 3.008386000 -s 10 -d -1 -p WCETT -e 284 -c 2 -a 0 -i 0 -k RTR
r -t 3.011508276 -s 8 -d -1 -p WCETT -e 284 -c 2 -a 0 -i 0 -k RTR
r -t 3.011508276 -s 5 -d -1 -p WCETT -e 284 -c 2 -a 0 -i 0 -k RTR
r -t 3.011508276 -s 9 -d -1 -p WCETT -e 284 -c 2 -a 0 -i 0 -k RTR
r -t 3.011508471 -s 3 -d -1 -p WCETT -e 284 -c 2 -a 0 -i 0 -k RTR
r -t 3.011508471 -s 7 -d -1 -p WCETT -e 284 -c 2 -a 0 -i 0 -k RTR
r -t 3.014386748 -s 6 -d -1 -p WCETT -e 284 -c 2 -a 0 -i 0 -k RTR
r -t 3.014386943 -s 9 -d -1 -p WCETT -e 284 -c 2 -a 0 -i 0 -k RTR
r -t 3.018094744 -s 9 -d -1 -p WCETT -e 284 -c 2 -a 0 -i 0 -k RTR
r -t 3.018094744 -s 5 -d -1 -p WCETT -e 284 -c 2 -a 0 -i 0 -k RTR
r -t 3.018094744 -s 10 -d -1 -p WCETT -e 284 -c 2 -a 0 -i 0 -k RTR
r -t 3.018094940 -s 4 -d -1 -p WCETT -e 284 -c 2 -a 0 -i 0 -k RTR
r -t 3.018094940 -s 6 -d -1 -p WCETT -e 284 -c 2 -a 0 -i 0 -k RTR
r -t 3.020853411 -s 5 -d -1 -p WCETT -e 284 -c 2 -a 0 -i 0 -k RTR
r -t 3.020853411 -s 1 -d -1 -p WCETT -e 284 -c 2 -a 0 -i 0 -k RTR
r -t 3.020853411 -s 2 -d -1 -p WCETT -e 284 -c 2 -a 0 -i 0 -k RTR
r -t 3.020853606 -s 3 -d -1 -p WCETT -e 284 -c 2 -a 0 -i 0 -k RTR
r -t 3.020853606 -s 7 -d -1 -p WCETT -e 284 -c 2 -a 0 -i 0 -k RTR
r -t 3.024096465 -s 3 -d -1 -p WCETT -e 284 -c 2 -a 0 -i 0 -k RTR
r -t 3.024096660 -s 1 -d -1 -p WCETT -e 284 -c 2 -a 0 -i 0 -k RTR
+ -t 4.000000000 -s 0 -d -1 -p WCETT -e 284 -c 2 -a 0 -i 0 -k RTR 
- -t 4.000000000 -s 0 -d -1 -p WCETT -e 284 -c 2 -a 0 -i 0 -k RTR
h -t 4.000000000 -s 0 -d -1 -p WCETT -e 284 -c 2 -a 0 -i 0 -k RTR
+ -t 4.000000000 -s 1 -d -1 -p WCETT -e 284 -c 2 -a 0 -i 0 -k RTR 
- -t 4.000000000 -s 1 -d -1 -p WCETT -e 284 -c 2 -a 0 -i 0 -k RTR
h -t 4.000000000 -s 1 -d -1 -p WCETT -e 284 -c 2 -a 0 -i 0 -k RTR
+ -t 4.000000000 -s 2 -d -1 -p WCETT -e 284 -c 2 -a 0 -i 0 -k RTR 
- -t 4.000000000 -s 2 -d -1 -p WCETT -e 284 -c 2 -a 0 -i 0 -k RTR
h -t 4.000000000 -s 2 -d -1 -p WCETT -e 284 -c 2 -a 0 -i 0 -k RTR
+ -t 4.000000000 -s 3 -d -1 -p WCETT -e 284 -c 2 -a 0 -i 0 -k RTR 
- -t 4.000000000 -s 3 -d -1 -p WCETT -e 284 -c 2 -a 0 -i 0 -k RTR
h -t 4.000000000 -s 3 -d -1 -p WCETT -e 284 -c 2 -a 0 -i 0 -k RTR
+ -t 4.000000000 -s 4 -d -1 -p WCETT -e 284 -c 2 -a 0 -i 0 -k RTR 
- -t 4.000000000 -s 4 -d -1 -p WCETT -e 284 -c 2 -a 0 -i 0 -k RTR
h -t 4.000000000 -s 4 -d -1 -p WCETT -e 284 -c 2 -a 0 -i 0 -k RTR
+ -t 4.000000000 -s 5 -d -1 -p WCETT -e 284 -c 2 -a 0 -i 0 -k RTR 
- -t 4.000000000 -s 5 -d -1 -p WCETT -e 284 -c 2 -a 0 -i 0 -k RTR
h -t 4.000000000 -s 5 -d -1 -p WCETT -e 284 -c 2 -a 0 -i 0 -k RTR
+ -t 4.000000000 -s 6 -d -1 -p WCETT -e 284 -c 2 -a 0 -i 0 -k RTR 
- -t 4.000000000 -s 6 -d -1 -p WCETT -e 284 -c 2 -a 0 -i 0 -k RTR
h -t 4.000000000 -s 6 -d -1 -p WCETT -e 284 -c 2 -a 0 -i 0 -k RTR
+ -t 4.000000000 -s 7 -d -1 -p WCETT -e 284 -c 2 -a 0 -i 0 -k RTR 
- -t 4.000000000 -s 7 -d -1 -p WCETT -e 284 -c 2 -a 0 -i 0 -k RTR
h -t 4.000000000 -s 7 -d -1 -p WCETT -e 284 -c 2 -a 0 -i 0 -k RTR
+ -t 4.000000000 -s 8 -d -1 -p WCETT -e 284 -c 2 -a 0 -i 0 -k RTR 
- -t 4.000000000 -s 8 -d -1 -p WCETT -e 284 -c 2 -a 0 -i 0 -k RTR
h -t 4.000000000 -s 8 -d -1 -p WCETT -e 284 -c 2 -a 0 -i 0 -k RTR
+ -t 4.000000000 -s 9 -d -1 -p WCETT -e 284 -c 2 -a 0 -i 0 -k RTR 
- -t 4.000000000 -s 9 -d -1 -p WCETT -e 284 -c 2 -a 0 -i 0 -k RTR
h -t 4.000000000 -s 9 -d -1 -p WCETT -e 284 -c 2 -a 0 -i 0 -k RTR
+ -t 4.000000000 -s 10 -d -1 -p WCETT -e 284 -c 2 -a 0 -i 0 -k RTR 
- -t 4.000000000 -s 10 -d -1 -p WCETT -e 284 -c 2 -a 0 -i 0 -k RTR
h -t 4.000000000 -s 10 -d -1 -p WCETT -e 284 -c 2 -a 0 -i 0 -k RTR
r -t 4.002828471 -s 3 -d -1 -p WCETT -e 284 -c 2 -a 0 -i 0 -k RTR
r -t 4.002828471 -s 4 -d -1 -p WCETT -e 284 -c 2 -a 0 -i 0 -k RTR
r -t 4.002828667 -s 0 -d -1 -p WCETT -e 284 -c 2 -a 0 -i 0 -k RTR
r -t 4.002828667 -s 5 -d -1 -p WCETT -e 284 -c 2 -a 0 -i 0 -k RTR
r -t 4.002828667 -s 2 -d -1 -p WCETT -e 284 -c 2 -a 0 -i 0 -k RTR
r -t 4.005687138 -s 6 -d -1 -p WCETT -e 284 -c 2 -a 0 -i 0 -k RTR
r -t 4.005687138 -s 3 -d -1 -p WCETT -e 284 -c 2 -a 0 -i 0 -k RTR
r -t 4.005687138 -s 4 -d -1 -p WCETT -e 284 -c 2 -a 0 -i 0 -k RTR
r -t 4.005687138 -s 7 -d -1 -p WCETT -e 284 -c 2 -a 0 -i 0 -k RTR
r -t 4.005687333 -s 1 -d -1 -p WCETT -e 284 -c 2 -a 0 -i 0 -k RTR
r -t 4.005687333 -s 9 -d -1 -p WCETT -e 284 -c 2 -a 0 -i 0 -k RTR
r -t 4.008445609 -s 5 -d -1 -p WCETT -e 284 -c 2 -a 0 -i 0 -k RTR
r -t 4.008445609 -s 1 -d -1 -p WCETT -e 284 -c 2 -a 0 -i 0 -k RTR
r -t 4.008445609 -s 2 -d -1 -p WCETT -e 284 -c 2 -a 0 -i 0 -k RTR
r -t 4.008445805 -s 3 -d -1 -p WCETT -e 284 -c 2 -a 0 -i 0 -k RTR
r -t 4.008445805 -s 7 -d -1 -p WCETT -e 284 -c 2 -a 0 -i 0 -k RTR
r -t 4.011224276 -s 0 -d -1 -p WCETT -e 284 -c 2 -a 0 -i 0 -k RTR
r -t 4.011224276 -s 1 -d -1 -p WCETT -e 284 -c 2 -a 0 -i 0 -k RTR
r -t 4.011224276 -s 5 -d -1 -p WCETT -e 284 -c 2 -a 0 -i 0 -k RTR
r -t 4.011224471 -s 6 -d -1 -p WCETT -e 284 -c 2 -a 0 -i 0 -k RTR
r -t 4.011224471 -s 4 -d -1 -p WCETT -e 284 -c 2 -a 0 -i 0 -k RTR
r -t 4.014142748 -s 3 -d -1 -p WCETT -e 284 -c 2 -a 0 -i 0 -k RTR
r -t 4.014142943 -s 1 -d -1 -p WCETT -e 284 -c 2 -a 0 -i 0 -k RTR
r -t 4.017691024 -s 6 -d -1 -p WCETT -e 284 -c 2 -a 0 -i 0 -k RTR
r -t 4.017691219 -s 9 -d -1 -p WCETT -e 284 -c 2 -a 0 -i 0 -k RTR
r -t 4.021114514 -s 6 -d -1 -p WCETT -e 284 -c 2 -a 0 -i 0 -k RTR
r -t 4.021114514 -s 7 -d -1 -p WCETT -e 284 -c 2 -a 0 -i 0 -k RTR
r -t 4.021114710 -s 5 -d -1 -p WCETT -e 284 -c 2 -a 0 -i 0 -k RTR
r -t 4.021114710 -s 8 -d -1 -p WCETT -e 284 -c 2 -a 0 -i 0 -k RTR
r -t 4.021114710 -s 10 -d -1 -p WCETT -e 284 -c 2 -a 0 -i 0 -k RTR
r -t 4.023952986 -s 8 -d -1 -p WCETT -e 284 -c 2 -a 0 -i 0 -k RTR
r -t 4.023952986 -s 5 -d -1 -p WCETT -e 284 -c 2 -a 0 -i 0 -k RTR
r -t 4.023952986 -s 9 -d -1 -p WCETT -e 284 -c 2 -a 0 -i 0 -k RTR
r -t 4.023953181 -s 3 -d -1 -p WCETT -e 284 -c 2 -a 0 -i 0 -k RTR
r -t 4.023953181 -s 7 -d -1 -p WCETT -e 284 -c 2 -a 0 -i 0 -k RTR
r -t 4.026791652 -s 9 -d -1 -p WCETT -e 284 -c 2 -a 0 -i 0 -k RTR
r -t 4.026791652 -s 5 -d -1 -p WCETT -e 284 -c 2 -a 0 -i 0 -k RTR
r -t 4.026791652 -s 10 -d -1 -p WCETT -e 284 -c 2 -a 0 -i 0 -k RTR
r -t 4.026791848 -s 4 -d -1 -p WCETT -e 284 -c 2 -a 0 -i 0 -k RTR
r -t 4.026791848 -s 6 -d -1 -p WCETT -e 284 -c 2 -a 0 -i 0 -k RTR
+ -t 5.000000000 -s 0 -d -1 -p WCETT -e 284 -c 2 -a 0 -i 0 -k RTR 
- -t 5.000000000 -s 0 -d -1 -p WCETT -e 284 -c 2 -a 0 -i 0 -k RTR
h -t 5.000000000 -s 0 -d -1 -p WCETT -e 284 -c 2 -a 0 -i 0 -k RTR
+ -t 5.000000000 -s 1 -d -1 -p WCETT -e 284 -c 2 -a 0 -i 0 -k RTR 
- -t 5.000000000 -s 1 -d -1 -p WCETT -e 284 -c 2 -a 0 -i 0 -k RTR
h -t 5.000000000 -s 1 -d -1 -p WCETT -e 284 -c 2 -a 0 -i 0 -k RTR
+ -t 5.000000000 -s 2 -d -1 -p WCETT -e 284 -c 2 -a 0 -i 0 -k RTR 
- -t 5.000000000 -s 2 -d -1 -p WCETT -e 284 -c 2 -a 0 -i 0 -k RTR
h -t 5.000000000 -s 2 -d -1 -p WCETT -e 284 -c 2 -a 0 -i 0 -k RTR
+ -t 5.000000000 -s 3 -d -1 -p WCETT -e 284 -c 2 -a 0 -i 0 -k RTR 
- -t 5.000000000 -s 3 -d -1 -p WCETT -e 284 -c 2 -a 0 -i 0 -k RTR
h -t 5.000000000 -s 3 -d -1 -p WCETT -e 284 -c 2 -a 0 -i 0 -k RTR
+ -t 5.000000000 -s 4 -d -1 -p WCETT -e 284 -c 2 -a 0 -i 0 -k RTR 
- -t 5.000000000 -s 4 -d -1 -p WCETT -e 284 -c 2 -a 0 -i 0 -k RTR
h -t 5.000000000 -s 4 -d -1 -p WCETT -e 284 -c 2 -a 0 -i 0 -k RTR
+ -t 5.000000000 -s 5 -d -1 -p WCETT -e 284 -c 2 -a 0 -i 0 -k RTR 
- -t 5.000000000 -s 5 -d -1 -p WCETT -e 284 -c 2 -a 0 -i 0 -k RTR
h -t 5.000000000 -s 5 -d -1 -p WCETT -e 284 -c 2 -a 0 -i 0 -k RTR
+ -t 5.000000000 -s 6 -d -1 -p WCETT -e 284 -c 2 -a 0 -i 0 -k RTR 
- -t 5.000000000 -s 6 -d -1 -p WCETT -e 284 -c 2 -a 0 -i 0 -k RTR
h -t 5.000000000 -s 6 -d -1 -p WCETT -e 284 -c 2 -a 0 -i 0 -k RTR
+ -t 5.000000000 -s 7 -d -1 -p WCETT -e 284 -c 2 -a 0 -i 0 -k RTR 
- -t 5.000000000 -s 7 -d -1 -p WCETT -e 284 -c 2 -a 0 -i 0 -k RTR
h -t 5.000000000 -s 7 -d -1 -p WCETT -e 284 -c 2 -a 0 -i 0 -k RTR
+ -t 5.000000000 -s 8 -d -1 -p WCETT -e 284 -c 2 -a 0 -i 0 -k RTR 
- -t 5.000000000 -s 8 -d -1 -p WCETT -e 284 -c 2 -a 0 -i 0 -k RTR
h -t 5.000000000 -s 8 -d -1 -p WCETT -e 284 -c 2 -a 0 -i 0 -k RTR
+ -t 5.000000000 -s 9 -d -1 -p WCETT -e 284 -c 2 -a 0 -i 0 -k RTR 
- -t 5.000000000 -s 9 -d -1 -p WCETT -e 284 -c 2 -a 0 -i 0 -k RTR
h -t 5.000000000 -s 9 -d -1 -p WCETT -e 284 -c 2 -a 0 -i 0 -k RTR
+ -t 5.000000000 -s 10 -d -1 -p WCETT -e 284 -c 2 -a 0 -i 0 -k RTR 
- -t 5.000000000 -s 10 -d -1 -p WCETT -e 284 -c 2 -a 0 -i 0 -k RTR
h -t 5.000000000 -s 10 -d -1 -p WCETT -e 284 -c 2 -a 0 -i 0 -k RTR
r -t 5.002788471 -s 3 -d -1 -p WCETT -e 284 -c 2 -a 0 -i 0 -k RTR
r -t 5.002788667 -s 1 -d -1 -p WCETT -e 284 -c 2 -a 0 -i 0 -k RTR
r -t 5.005931414 -s 4 -d -1 -p WCETT -e 284 -c 2 -a 0 -i 0 -k RTR
r -t 5.009074192 -s 9 -d -1 -p WCETT -e 284 -c 2 -a 0 -i 0 -k RTR
r -t 5.009074192 -s 10 -d -1 -p WCETT -e 284 -c 2 -a 0 -i 0 -k RTR
r -t 5.009074580 -s 3 -d -1 -p WCETT -e 284 -c 2 -a 0 -i 0 -k RTR
r -t 5.009074775 -s 0 -d -1 -p WCETT -e 284 -c 2 -a 0 -i 0 -k RTR
r -t 5.012378070 -s 6 -d -1 -p WCETT -e 284 -c 2 -a 0 -i 0 -k RTR
r -t 5.012378266 -s 9 -d -1 -p WCETT -e 284 -c 2 -a 0 -i 0 -k RTR
r -t 5.015899718 -s 5 -d -1 -p WCETT -e 284 -c 2 -a 0 -i 0 -k RTR
r -t 5.015899718 -s 1 -d -1 -p WCETT -e 284 -c 2 -a 0 -i 0 -k RTR
r -t 5.015899718 -s 2 -d -1 -p WCETT -e 284 -c 2 -a 0 -i 0 -k RTR
r -t 5.015899913 -s 3 -d -1 -p WCETT -e 284 -c 2 -a 0 -i 0 -k RTR
r -t 5.015899913 -s 7 -d -1 -p WCETT -e 284 -c 2 -a 0 -i 0 -k RTR
r -t 5.018818384 -s 0 -d -1 -p WCETT -e 284 -c 2 -a 0 -i 0 -k RTR
r -t 5.018818384 -s 1 -d -1 -p WCETT -e 284 -c 2 -a 0 -i 0 -k RTR
r -t 5.018818384 -s 5 -d -1 -p WCETT -e 284 -c 2 -a 0 -i 0 -k RTR
r -t 5.018818580 -s 6 -d -1 -p WCETT -e 284 -c 2 -a 0 -i 0 -k RTR
r -t 5.018818580 -s 4 -d -1 -p WCETT -e 284 -c 2 -a 0 -i 0 -k RTR
+ -t 6.000000000 -s 0 -d -1 -p WCETT -e 284 -c 2 -a 0 -i 0 -k RTR 
- -t 6.000000000 -s 0 -d -1 -p WCETT -e 284 -c 2 -a 0 -i 0 -k RTR
h -t 6.000000000 -s 0 -d -1 -p WCETT -e 284 -c 2 -a 0 -i 0 -k RTR
+ -t 6.000000000 -s 1 -d -1 -p WCETT -e 284 -c 2 -a 0 -i 0 -k RTR 
- -t 6.000000000 -s 1 -d -1 -p WCETT -e 284 -c 2 -a 0 -i 0 -k RTR
h -t 6.000000000 -s 1 -d -1 -p WCETT -e 284 -c 2 -a 0 -i 0 -k RTR
+ -t 6.000000000 -s 2 -d -1 -p WCETT -e 284 -c 2 -a 0 -i 0 -k RTR 
- -t 6.000000000 -s 2 -d -1 -p WCETT -e 284 -c 2 -a 0 -i 0 -k RTR
h -t 6.000000000 -s 2 -d -1 -p WCETT -e 284 -c 2 -a 0 -i 0 -k RTR
+ -t 6.000000000 -s 3 -d -1 -p WCETT -e 284 -c 2 -a 0 -i 0 -k RTR 
- -t 6.000000000 -s 3 -d -1 -p WCETT -e 284 -c 2 -a 0 -i 0 -k RTR
h -t 6.000000000 -s 3 -d -1 -p WCETT -e 284 -c 2 -a 0 -i 0 -k RTR
+ -t 6.000000000 -s 4 -d -1 -p WCETT -e 284 -c 2 -a 0 -i 0 -k RTR 
- -t 6.000000000 -s 4 -d -1 -p WCETT -e 284 -c 2 -a 0 -i 0 -k RTR
h -t 6.000000000 -s 4 -d -1 -p WCETT -e 284 -c 2 -a 0 -i 0 -k RTR
+ -t 6.000000000 -s 5 -d -1 -p WCETT -e 284 -c 2 -a 0 -i 0 -k RTR 
- -t 6.000000000 -s 5 -d -1 -p WCETT -e 284 -c 2 -a 0 -i 0 -k RTR
h -t 6.000000000 -s 5 -d -1 -p WCETT -e 284 -c 2 -a 0 -i 0 -k RTR
+ -t 6.000000000 -s 6 -d -1 -p WCETT -e 284 -c 2 -a 0 -i 0 -k RTR 
- -t 6.000000000 -s 6 -d -1 -p WCETT -e 284 -c 2 -a 0 -i 0 -k RTR
h -t 6.000000000 -s 6 -d -1 -p WCETT -e 284 -c 2 -a 0 -i 0 -k RTR
+ -t 6.000000000 -s 7 -d -1 -p WCETT -e 284 -c 2 -a 0 -i 0 -k RTR 
- -t 6.000000000 -s 7 -d -1 -p WCETT -e 284 -c 2 -a 0 -i 0 -k RTR
h -t 6.000000000 -s 7 -d -1 -p WCETT -e 284 -c 2 -a 0 -i 0 -k RTR
+ -t 6.000000000 -s 8 -d -1 -p WCETT -e 284 -c 2 -a 0 -i 0 -k RTR 
- -t 6.000000000 -s 8 -d -1 -p WCETT -e 284 -c 2 -a 0 -i 0 -k RTR
h -t 6.000000000 -s 8 -d -1 -p WCETT -e 284 -c 2 -a 0 -i 0 -k RTR
+ -t 6.000000000 -s 9 -d -1 -p WCETT -e 284 -c 2 -a 0 -i 0 -k RTR 
- -t 6.000000000 -s 9 -d -1 -p WCETT -e 284 -c 2 -a 0 -i 0 -k RTR
h -t 6.000000000 -s 9 -d -1 -p WCETT -e 284 -c 2 -a 0 -i 0 -k RTR