Sconfig 0.00000 tap: on snoop: rts? on errs? on
Sconfig 0.00000 salvage: on !bd replies? on
Sconfig 0.00000 grat error: on grat reply: on
Sconfig 0.00000 $reply for props: on ring 0 search: on
Sconfig 0.00000 using MOBICACHE
s 15.000000000 _0_ AGT  --- 0 cbr 512 [0 0 0 0] ------- [0:0 13:0 32 0] [0] 0 0
r 15.000000000 _0_ RTR  --- 0 cbr 512 [0 0 0 0] ------- [0:0 13:0 32 0] [0] 0 0
s 15.000000000 _1_ AGT  --- 2 cbr 512 [0 0 0 0] ------- [1:0 13:1 32 0] [0] 0 0
r 15.000000000 _1_ RTR  --- 2 cbr 512 [0 0 0 0] ------- [1:0 13:1 32 0] [0] 0 0
s 15.000000000 _13_ AGT  --- 4 cbr 512 [0 0 0 0] ------- [13:2 7:0 32 0] [0] 0 0
r 15.000000000 _13_ RTR  --- 4 cbr 512 [0 0 0 0] ------- [13:2 7:0 32 0] [0] 0 0
s 15.003113032 _13_ RTR  --- 5 DSR 32 [0 0 0 0] ------- [13:255 7:255 32 0] 1 [1 1] [0 1 0 0->0] [0 0 0 0->0]
s 15.003179323 _1_ RTR  --- 3 DSR 32 [0 0 0 0] ------- [1:255 13:255 32 0] 1 [1 1] [0 1 0 0->0] [0 0 0 0->0]
s 15.003424088 _0_ RTR  --- 1 DSR 32 [0 0 0 0] ------- [0:255 13:255 32 0] 1 [1 1] [0 1 0 0->0] [0 0 0 0->0]
r 15.003925365 _10_ RTR  --- 5 DSR 32 [0 ffffffff d 800] ------- [13:255 7:255 32 0] 1 [1 1] [0 1 0 0->0] [0 0 0 0->0]
r 15.003925365 _16_ RTR  --- 5 DSR 32 [0 ffffffff d 800] ------- [13:255 7:255 32 0] 1 [1 1] [0 1 0 0->0] [0 0 0 0->0]
r 15.003925503 _18_ RTR  --- 5 DSR 32 [0 ffffffff d 800] ------- [13:255 7:255 32 0] 1 [1 1] [0 1 0 0->0] [0 0 0 0->0]
r 15.003925699 _7_ RTR  --- 5 DSR 32 [0 ffffffff d 800] ------- [13:255 7:255 32 0] 1 [1 1] [0 1 0 0->0] [0 0 0 0->0]
r 15.003925699 _12_ RTR  --- 5 DSR 32 [0 ffffffff d 800] ------- [13:255 7:255 32 0] 1 [1 1] [0 1 0 0->0] [0 0 0 0->0]
r 15.003925699 _14_ RTR  --- 5 DSR 32 [0 ffffffff d 800] ------- [13:255 7:255 32 0] 1 [1 1] [0 1 0 0->0] [0 0 0 0->0]
r 15.003925777 _15_ RTR  --- 5 DSR 32 [0 ffffffff d 800] ------- [13:255 7:255 32 0] 1 [1 1] [0 1 0 0->0] [0 0 0 0->0]
r 15.003925777 _9_ RTR  --- 5 DSR 32 [0 ffffffff d 800] ------- [13:255 7:255 32 0] 1 [1 1] [0 1 0 0->0] [0 0 0 0->0]
r 15.003925777 _11_ RTR  --- 5 DSR 32 [0 ffffffff d 800] ------- [13:255 7:255 32 0] 1 [1 1] [0 1 0 0->0] [0 0 0 0->0]
r 15.003925777 _17_ RTR  --- 5 DSR 32 [0 ffffffff d 800] ------- [13:255 7:255 32 0] 1 [1 1] [0 1 0 0->0] [0 0 0 0->0]
r 15.005032699 _4_ RTR  --- 3 DSR 32 [0 ffffffff 1 800] ------- [1:255 13:255 32 0] 1 [1 1] [0 1 0 0->0] [0 0 0 0->0]
r 15.005033032 _0_ RTR  --- 3 DSR 32 [0 ffffffff 1 800] ------- [1:255 13:255 32 0] 1 [1 1] [0 1 0 0->0] [0 0 0 0->0]
r 15.005033032 _7_ RTR  --- 3 DSR 32 [0 ffffffff 1 800] ------- [1:255 13:255 32 0] 1 [1 1] [0 1 0 0->0] [0 0 0 0->0]
r 15.005033032 _2_ RTR  --- 3 DSR 32 [0 ffffffff 1 800] ------- [1:255 13:255 32 0] 1 [1 1] [0 1 0 0->0] [0 0 0 0->0]
s 15.005033032 _7_ RTR  --- 8 DSR 48 [0 0 0 0] ------- [7:255 1:255 255 1] 2 [0 1] [1 1 3 1->13] [0 0 0 0->0]
r 15.005033111 _3_ RTR  --- 3 DSR 32 [0 ffffffff 1 800] ------- [1:255 13:255 32 0] 1 [1 1] [0 1 0 0->0] [0 0 0 0->0]
r 15.005033111 _5_ RTR  --- 3 DSR 32 [0 ffffffff 1 800] ------- [1:255 13:255 32 0] 1 [1 1] [0 1 0 0->0] [0 0 0 0->0]
s 15.005161692 _7_ RTR  --- 7 DSR 44 [0 0 0 0] ------- [7:255 13:255 254 13] 2 [0 1] [1 1 2 13->7] [0 0 0 0->0]
r 15.006811032 _1_ RTR  --- 8 DSR 48 [13a 1 7 800] ------- [7:255 1:255 255 1] 2 [0 1] [1 1 3 1->13] [0 0 0 0->0]
SFESTs 15.006811032 _1_ 2 [1 -> 13] 1(1) to 7 [1 |7 13 ]
s 15.006811032 _1_ RTR  --- 2 cbr 552 [0 0 0 0] ------- [1:0 13:1 32 7] [0] 0 0
r 15.008117641 _3_ RTR  --- 1 DSR 32 [0 ffffffff 0 800] ------- [0:255 13:255 32 0] 1 [1 1] [0 1 0 0->0] [0 0 0 0->0]
r 15.008117975 _6_ RTR  --- 1 DSR 32 [0 ffffffff 0 800] ------- [0:255 13:255 32 0] 1 [1 1] [0 1 0 0->0] [0 0 0 0->0]
r 15.008117975 _1_ RTR  --- 1 DSR 32 [0 ffffffff 0 800] ------- [0:255 13:255 32 0] 1 [1 1] [0 1 0 0->0] [0 0 0 0->0]
s 15.008117975 _1_ RTR  --- 9 DSR 52 [0 0 0 0] ------- [1:255 0:255 255 0] 2 [0 1] [1 1 4 0->13] [0 0 0 0->0]
r 15.008118053 _4_ RTR  --- 1 DSR 32 [0 ffffffff 0 800] ------- [0:255 13:255 32 0] 1 [1 1] [0 1 0 0->0] [0 0 0 0->0]
r 15.013837975 _7_ RTR  --- 2 cbr 552 [13a 7 1 800] ------- [1:0 13:1 32 7] [0] 1 0
f 15.013837975 _7_ RTR  --- 2 cbr 552 [13a 7 1 800] ------- [1:0 13:1 31 13] [0] 1 0
r 15.015952641 _0_ RTR  --- 9 DSR 52 [13a 0 1 800] ------- [1:255 0:255 255 0] 2 [0 1] [1 1 4 0->13] [0 0 0 0->0]
SFESTs 15.015952641 _0_ 0 [0 -> 13] 1(1) to 1 [0 |1 7 13 ]
s 15.015952641 _0_ RTR  --- 0 cbr 556 [0 0 0 0] ------- [0:0 13:0 32 1] [0] 0 0
r 15.022238641 _1_ RTR  --- 0 cbr 556 [13a 1 0 800] ------- [0:0 13:0 32 1] [0] 1 0
f 15.022238641 _1_ RTR  --- 0 cbr 556 [13a 1 0 800] ------- [0:0 13:0 31 7] [0] 1 0
r 15.024118918 _13_ RTR  --- 7 DSR 44 [13a d 7 800] ------- [7:255 13:255 254 13] 2 [0 1] [1 1 2 13->7] [0 0 0 0->0]
SFESTs 15.024118918 _13_ 4 [13 -> 7] 1(1) to 7 [13 |7 ]
s 15.024118918 _13_ RTR  --- 4 cbr 548 [0 0 0 0] ------- [13:2 7:0 32 7] [0] 0 0
r 15.030450251 _7_ RTR  --- 0 cbr 556 [13a 7 1 800] ------- [0:0 13:0 31 7] [0] 2 0
f 15.030450251 _7_ RTR  --- 0 cbr 556 [13a 7 1 800] ------- [0:0 13:0 30 13] [0] 2 0
r 15.036422918 _7_ RTR  --- 4 cbr 548 [13a 7 d 800] ------- [13:2 7:0 32 7] [0] 1 0
r 15.036422918 _7_ AGT  --- 4 cbr 512 [13a 7 d 800] ------- [13:2 7:0 32 7] [0] 1 0
r 15.042336918 _13_ RTR  --- 2 cbr 552 [13a d 7 800] ------- [1:0 13:1 31 13] [0] 2 0
r 15.042336918 _13_ AGT  --- 2 cbr 512 [13a d 7 800] ------- [1:0 13:1 31 13] [0] 2 0
r 15.048623584 _13_ RTR  --- 0 cbr 556 [13a d 7 800] ------- [0:0 13:0 30 13] [0] 3 0
r 15.048623584 _13_ AGT  --- 0 cbr 512 [13a d 7 800] ------- [0:0 13:0 30 13] [0] 3 0
s 15.070377957 _0_ AGT  --- 10 cbr 512 [0 0 0 0] ------- [0:0 13:0 32 0] [1] 0 0
r 15.070377957 _0_ RTR  --- 10 cbr 512 [0 0 0 0] ------- [0:0 13:0 32 0] [1] 0 0
SFESTs 15.070377957 _0_ 10 [0 -> 13] 1(1) to 1 [0 |1 7 13 ]
s 15.070377957 _0_ RTR  --- 10 cbr 556 [0 0 0 0] ------- [0:0 13:0 32 1] [1] 0 0
r 15.076179957 _1_ RTR  --- 10 cbr 556 [13a 1 0 800] ------- [0:0 13:0 32 1] [1] 1 0
f 15.076179957 _1_ RTR  --- 10 cbr 556 [13a 1 0 800] ------- [0:0 13:0 31 7] [1] 1 0
r 15.082405957 _7_ RTR  --- 10 cbr 556 [13a 7 1 800] ------- [0:0 13:0 31 7] [1] 2 0
f 15.082405957 _7_ RTR  --- 10 cbr 556 [13a 7 1 800] ------- [0:0 13:0 30 13] [1] 2 0
r 15.088391957 _13_ RTR  --- 10 cbr 556 [13a d 7 800] ------- [0:0 13:0 30 13] [1] 3 0
r 15.088391957 _13_ AGT  --- 10 cbr 512 [13a d 7 800] ------- [0:0 13:0 30 13] [1] 3 0
s 15.101381756 _1_ AGT  --- 11 cbr 512 [0 0 0 0] ------- [1:0 13:1 32 0] [1] 0 0
r 15.101381756 _1_ RTR  --- 11 cbr 512 [0 0 0 0] ------- [1:0 13:1 32 0] [1] 0 0
SFESTs 15.101381756 _1_ 11 [1 -> 13] 1(1) to 7 [1 |7 13 ]
s 15.101381756 _1_ RTR  --- 11 cbr 552 [0 0 0 0] ------- [1:0 13:1 32 7] [1] 0 0
r 15.107531756 _7_ RTR  --- 11 cbr 552 [13a 7 1 800] ------- [1:0 13:1 32 7] [1] 1 0
f 15.107531756 _7_ RTR  --- 11 cbr 552 [13a 7 1 800] ------- [1:0 13:1 31 13] [1] 1 0
r 15.113665756 _13_ RTR  --- 11 cbr 552 [13a d 7 800] ------- [1:0 13:1 31 13] [1] 2 0
r 15.113665756 _13_ AGT  --- 11 cbr 512 [13a d 7 800] ------- [1:0 13:1 31 13] [1] 2 0
s 15.130138663 _13_ AGT  --- 12 cbr 512 [0 0 0 0] ------- [13:2 7:0 32 0] [1] 0 0
r 15.130138663 _13_ RTR  --- 12 cbr 512 [0 0 0 0] ------- [13:2 7:0 32 0] [1] 0 0
SFESTs 15.130138663 _13_ 12 [13 -> 7] 1(1) to 7 [13 |7 ]
s 15.130138663 _13_ RTR  --- 12 cbr 548 [0 0 0 0] ------- [13:2 7:0 32 7] [1] 0 0
r 15.135736663 _7_ RTR  --- 12 cbr 548 [13a 7 d 800] ------- [13:2 7:0 32 7] [1] 1 0
r 15.135736663 _7_ AGT  --- 12 cbr 512 [13a 7 d 800] ------- [13:2 7:0 32 7] [1] 1 0
s 15.163905358 _1_ AGT  --- 13 cbr 512 [0 0 0 0] ------- [1:0 13:1 32 0] [2] 0 0
r 15.163905358 _1_ RTR  --- 13 cbr 512 [0 0 0 0] ------- [1:0 13:1 32 0] [2] 0 0
SFESTs 15.163905358 _1_ 13 [1 -> 13] 1(1) to 7 [1 |7 13 ]
s 15.163905358 _1_ RTR  --- 13 cbr 552 [0 0 0 0] ------- [1:0 13:1 32 7] [2] 0 0
r 15.169695358 _7_ RTR  --- 13 cbr 552 [13a 7 1 800] ------- [1:0 13:1 32 7] [2] 1 0
f 15.169695358 _7_ RTR  --- 13 cbr 552 [13a 7 1 800] ------- [1:0 13:1 31 13] [2] 1 0
r 15.175649358 _13_ RTR  --- 13 cbr 552 [13a d 7 800] ------- [1:0 13:1 31 13] [2] 2 0
r 15.175649358 _13_ AGT  --- 13 cbr 512 [13a d 7 800] ------- [1:0 13:1 31 13] [2] 2 0
s 15.209415203 _0_ AGT  --- 14 cbr 512 [0 0 0 0] ------- [0:0 13:0 32 0] [2] 0 0
r 15.209415203 _0_ RTR  --- 14 cbr 512 [0 0 0 0] ------- [0:0 13:0 32 0] [2] 0 0
SFESTs 15.209415203 _0_ 14 [0 -> 13] 1(1) to 1 [0 |1 7 13 ]
s 15.209415203 _0_ RTR  --- 14 cbr 556 [0 0 0 0] ------- [0:0 13:0 32 1] [2] 0 0
s 15.214748797 _13_ AGT  --- 15 cbr 512 [0 0 0 0] ------- [13:2 7:0 32 0] [2] 0 0
r 15.214748797 _13_ RTR  --- 15 cbr 512 [0 0 0 0] ------- [13:2 7:0 32 0] [2] 0 0
SFESTs 15.214748797 _13_ 15 [13 -> 7] 1(1) to 7 [13 |7 ]
s 15.214748797 _13_ RTR  --- 15 cbr 548 [0 0 0 0] ------- [13:2 7:0 32 7] [2] 0 0
r 15.215477203 _1_ RTR  --- 14 cbr 556 [13a 1 0 800] ------- [0:0 13:0 32 1] [2] 1 0
f 15.215477203 _1_ RTR  --- 14 cbr 556 [13a 1 0 800] ------- [0:0 13:0 31 7] [2] 1 0
r 15.221923203 _7_ RTR  --- 14 cbr 556 [13a 7 1 800] ------- [0:0 13:0 31 7] [2] 2 0
f 15.221923203 _7_ RTR  --- 14 cbr 556 [13a 7 1 800] ------- [0:0 13:0 30 13] [2] 2 0
r 15.228029203 _13_ RTR  --- 14 cbr 556 [13a d 7 800] ------- [0:0 13:0 30 13] [2] 3 0
r 15.228029203 _13_ AGT  --- 14 cbr 512 [13a d 7 800] ------- [0:0 13:0 30 13] [2] 3 0
r 15.234151203 _7_ RTR  --- 15 cbr 548 [13a 7 d 800] ------- [13:2 7:0 32 7] [2] 1 0
r 15.234151203 _7_ AGT  --- 15 cbr 512 [13a 7 d 800] ------- [13:2 7:0 32 7] [2] 1 0
s 15.269127474 _13_ AGT  --- 16 cbr 512 [0 0 0 0] ------- [13:2 7:0 32 0] [3] 0 0
r 15.269127474 _13_ RTR  --- 16 cbr 512 [0 0 0 0] ------- [13:2 7:0 32 0] [3] 0 0
SFs 15.269127474 _13_ 16 [13 -> 7] 1(0) to 7 
s 15.269127474 _13_ RTR  --- 16 cbr 532 [0 0 0 0] ------- [13:2 7:0 32 7] [3] 0 0
r 15.274937474 _7_ RTR  --- 16 cbr 532 [13a 7 d 800] ------- [13:2 7:0 32 7] [3] 1 0
r 15.274937474 _7_ AGT  --- 16 cbr 512 [13a 7 d 800] ------- [13:2 7:0 32 7] [3] 1 0
s 15.279260657 _1_ AGT  --- 17 cbr 512 [0 0 0 0] ------- [1:0 13:1 32 0] [3] 0 0
r 15.279260657 _1_ RTR  --- 17 cbr 512 [0 0 0 0] ------- [1:0 13:1 32 0] [3] 0 0
SFs 15.279260657 _1_ 17 [1 -> 13] 1(0) to 7 
s 15.279260657 _1_ RTR  --- 17 cbr 532 [0 0 0 0] ------- [1:0 13:1 32 7] [3] 0 0
r 15.285210657 _7_ RTR  --- 17 cbr 532 [13a 7 1 800] ------- [1:0 13:1 32 7] [3] 1 0
SFf 15.285210657 _7_ 17 [1 -> 13] 1 to 13
f 15.285210657 _7_ RTR  --- 17 cbr 532 [13a 7 1 800] ------- [1:0 13:1 31 13] [3] 1 0
r 15.291244657 _13_ RTR  --- 17 cbr 532 [13a d 7 800] ------- [1:0 13:1 31 13] [3] 2 0
r 15.291244657 _13_ AGT  --- 17 cbr 512 [13a d 7 800] ------- [1:0 13:1 31 13] [3] 2 0
s 15.340015999 _0_ AGT  --- 18 cbr 512 [0 0 0 0] ------- [0:0 13:0 32 0] [3] 0 0
r 15.340015999 _0_ RTR  --- 18 cbr 512 [0 0 0 0] ------- [0:0 13:0 32 0] [3] 0 0
SFs 15.340015999 _0_ 18 [0 -> 13] 1(0) to 1 
s 15.340015999 _0_ RTR  --- 18 cbr 532 [0 0 0 0] ------- [0:0 13:0 32 1] [3] 0 0
r 15.345925999 _1_ RTR  --- 18 cbr 532 [13a 1 0 800] ------- [0:0 13:0 32 1] [3] 1 0
SFf 15.345925999 _1_ 18 [0 -> 13] 1 to 7
f 15.345925999 _1_ RTR  --- 18 cbr 532 [13a 1 0 800] ------- [0:0 13:0 31 7] [3] 1 0
r 15.352239999 _7_ RTR  --- 18 cbr 532 [13a 7 1 800] ------- [0:0 13:0 31 7] [3] 2 0
SFf 15.352239999 _7_ 18 [0 -> 13] 1 to 13
f 15.352239999 _7_ RTR  --- 18 cbr 532 [13a 7 1 800] ------- [0:0 13:0 30 13] [3] 2 0
r 15.358233999 _13_ RTR  --- 18 cbr 532 [13a d 7 800] ------- [0:0 13:0 30 13] [3] 3 0
r 15.358233999 _13_ AGT  --- 18 cbr 512 [13a d 7 800] ------- [0:0 13:0 30 13] [3] 3 0
s 15.418355543 _13_ AGT  --- 19 cbr 512 [0 0 0 0] ------- [13:2 7:0 32 0] [4] 0 0
r 15.418355543 _13_ RTR  --- 19 cbr 512 [0 0 0 0] ------- [13:2 7:0 32 0] [4] 0 0
SFs 15.418355543 _13_ 19 [13 -> 7] 1(0) to 7 
s 15.418355543 _13_ RTR  --- 19 cbr 532 [0 0 0 0] ------- [13:2 7:0 32 7] [4] 0 0
r 15.423945543 _7_ RTR  --- 19 cbr 532 [13a 7 d 800] ------- [13:2 7:0 32 7] [4] 1 0
r 15.423945543 _7_ AGT  --- 19 cbr 512 [13a 7 d 800] ------- [13:2 7:0 32 7] [4] 1 0
s 15.424026400 _1_ AGT  --- 20 cbr 512 [0 0 0 0] ------- [1:0 13:1 32 0] [4] 0 0
r 15.424026400 _1_ RTR  --- 20 cbr 512 [0 0 0 0] ------- [1:0 13:1 32 0] [4] 0 0
SFs 15.424026400 _1_ 20 [1 -> 13] 1(0) to 7 
s 15.424026400 _1_ RTR  --- 20 cbr 532 [0 0 0 0] ------- [1:0 13:1 32 7] [4] 0 0
r 15.430130210 _7_ RTR  --- 20 cbr 532 [13a 7 1 800] ------- [1:0 13:1 32 7] [4] 1 0
SFf 15.430130210 _7_ 20 [1 -> 13] 1 to 13
f 15.430130210 _7_ RTR  --- 20 cbr 532 [13a 7 1 800] ------- [1:0 13:1 31 13] [4] 1 0
r 15.436304210 _13_ RTR  --- 20 cbr 532 [13a d 7 800] ------- [1:0 13:1 31 13] [4] 2 0
r 15.436304210 _13_ AGT  --- 20 cbr 512 [13a d 7 800] ------- [1:0 13:1 31 13] [4] 2 0
s 15.486892035 _0_ AGT  --- 21 cbr 512 [0 0 0 0] ------- [0:0 13:0 32 0] [4] 0 0
r 15.486892035 _0_ RTR  --- 21 cbr 512 [0 0 0 0] ------- [0:0 13:0 32 0] [4] 0 0
SFs 15.486892035 _0_ 21 [0 -> 13] 1(0) to 1 
s 15.486892035 _0_ RTR  --- 21 cbr 532 [0 0 0 0] ------- [0:0 13:0 32 1] [4] 0 0
r 15.492682035 _1_ RTR  --- 21 cbr 532 [13a 1 0 800] ------- [0:0 13:0 32 1] [4] 1 0
SFf 15.492682035 _1_ 21 [0 -> 13] 1 to 7
f 15.492682035 _1_ RTR  --- 21 cbr 532 [13a 1 0 800] ------- [0:0 13:0 31 7] [4] 1 0
r 15.498476035 _7_ RTR  --- 21 cbr 532 [13a 7 1 800] ------- [0:0 13:0 31 7] [4] 2 0
SFf 15.498476035 _7_ 21 [0 -> 13] 1 to 13
f 15.498476035 _7_ RTR  --- 21 cbr 532 [13a 7 1 800] ------- [0:0 13:0 30 13] [4] 2 0
r 15.504350035 _13_ RTR  --- 21 cbr 532 [13a d 7 800] ------- [0:0 13:0 30 13] [4] 3 0
r 15.504350035 _13_ AGT  --- 21 cbr 512 [13a d 7 800] ------- [0:0 13:0 30 13] [4] 3 0
s 15.542756768 _1_ AGT  --- 22 cbr 512 [0 0 0 0] ------- [1:0 13:1 32 0] [5] 0 0
r 15.542756768 _1_ RTR  --- 22 cbr 512 [0 0 0 0] ------- [1:0 13:1 32 0] [5] 0 0
SFs 15.542756768 _1_ 22 [1 -> 13] 1(0) to 7 
s 15.542756768 _1_ RTR  --- 22 cbr 532 [0 0 0 0] ------- [1:0 13:1 32 7] [5] 0 0
r 15.548786768 _7_ RTR  --- 22 cbr 532 [13a 7 1 800] ------- [1:0 13:1 32 7] [5] 1 0
SFf 15.548786768 _7_ 22 [1 -> 13] 1 to 13
f 15.548786768 _7_ RTR  --- 22 cbr 532 [13a 7 1 800] ------- [1:0 13:1 31 13] [5] 1 0
r 15.554820768 _13_ RTR  --- 22 cbr 532 [13a d 7 800] ------- [1:0 13:1 31 13] [5] 2 0
r 15.554820768 _13_ AGT  --- 22 cbr 512 [13a d 7 800] ------- [1:0 13:1 31 13] [5] 2 0
s 15.558018946 _13_ AGT  --- 23 cbr 512 [0 0 0 0] ------- [13:2 7:0 32 0] [5] 0 0
r 15.558018946 _13_ RTR  --- 23 cbr 512 [0 0 0 0] ------- [13:2 7:0 32 0] [5] 0 0
SFs 15.558018946 _13_ 23 [13 -> 7] 1(0) to 7 
s 15.558018946 _13_ RTR  --- 23 cbr 532 [0 0 0 0] ------- [13:2 7:0 32 7] [5] 0 0
r 15.563588946 _7_ RTR  --- 23 cbr 532 [13a 7 d 800] ------- [13:2 7:0 32 7] [5] 1 0
r 15.563588946 _7_ AGT  --- 23 cbr 512 [13a 7 d 800] ------- [13:2 7:0 32 7] [5] 1 0
s 15.592585271 _0_ AGT  --- 24 cbr 512 [0 0 0 0] ------- [0:0 13:0 32 0] [5] 0 0
r 15.592585271 _0_ RTR  --- 24 cbr 512 [0 0 0 0] ------- [0:0 13:0 32 0] [5] 0 0
SFs 15.592585271 _0_ 24 [0 -> 13] 1(0) to 1 
s 15.592585271 _0_ RTR  --- 24 cbr 532 [0 0 0 0] ------- [0:0 13:0 32 1] [5] 0 0
r 15.598055271 _1_ RTR  --- 24 cbr 532 [13a 1 0 800] ------- [0:0 13:0 32 1] [5] 1 0
SFf 15.598055271 _1_ 24 [0 -> 13] 1 to 7
f 15.598055271 _1_ RTR  --- 24 cbr 532 [13a 1 0 800] ------- [0:0 13:0 31 7] [5] 1 0
r 15.603829271 _7_ RTR  --- 24 cbr 532 [13a 7 1 800] ------- [0:0 13:0 31 7] [5] 2 0
SFf 15.603829271 _7_ 24 [0 -> 13] 1 to 13
f 15.603829271 _7_ RTR  --- 24 cbr 532 [13a 7 1 800] ------- [0:0 13:0 30 13] [5] 2 0
r 15.609663271 _13_ RTR  --- 24 cbr 532 [13a d 7 800] ------- [0:0 13:0 30 13] [5] 3 0
r 15.609663271 _13_ AGT  --- 24 cbr 512 [13a d 7 800] ------- [0:0 13:0 30 13] [5] 3 0
s 15.676837724 _1_ AGT  --- 25 cbr 512 [0 0 0 0] ------- [1:0 13:1 32 0] [6] 0 0
r 15.676837724 _1_ RTR  --- 25 cbr 512 [0 0 0 0] ------- [1:0 13:1 32 0] [6] 0 0
SFs 15.676837724 _1_ 25 [1 -> 13] 1(0) to 7 
s 15.676837724 _1_ RTR  --- 25 cbr 532 [0 0 0 0] ------- [1:0 13:1 32 7] [6] 0 0
r 15.682567724 _7_ RTR  --- 25 cbr 532 [13a 7 1 800] ------- [1:0 13:1 32 7] [6] 1 0
SFf 15.682567724 _7_ 25 [1 -> 13] 1 to 13
f 15.682567724 _7_ RTR  --- 25 cbr 532 [13a 7 1 800] ------- [1:0 13:1 31 13] [6] 1 0
r 15.688781724 _13_ RTR  --- 25 cbr 532 [13a d 7 800] ------- [1:0 13:1 31 13] [6] 2 0
r 15.688781724 _13_ AGT  --- 25 cbr 512 [13a d 7 800] ------- [1:0 13:1 31 13] [6] 2 0
s 15.701511527 _13_ AGT  --- 26 cbr 512 [0 0 0 0] ------- [13:2 7:0 32 0] [6] 0 0
r 15.701511527 _13_ RTR  --- 26 cbr 512 [0 0 0 0] ------- [13:2 7:0 32 0] [6] 0 0
SFs 15.701511527 _13_ 26 [13 -> 7] 1(0) to 7 
s 15.701511527 _13_ RTR  --- 26 cbr 532 [0 0 0 0] ------- [13:2 7:0 32 7] [6] 0 0
s 15.705684281 _0_ AGT  --- 27 cbr 512 [0 0 0 0] ------- [0:0 13:0 32 0] [6] 0 0
r 15.705684281 _0_ RTR  --- 27 cbr 512 [0 0 0 0] ------- [0:0 13:0 32 0] [6] 0 0
SFs 15.705684281 _0_ 27 [0 -> 13] 1(0) to 1 
s 15.705684281 _0_ RTR  --- 27 cbr 532 [0 0 0 0] ------- [0:0 13:0 32 1] [6] 0 0
r 15.707161527 _7_ RTR  --- 26 cbr 532 [13a 7 d 800] ------- [13:2 7:0 32 7] [6] 1 0
r 15.707161527 _7_ AGT  --- 26 cbr 512 [13a 7 d 800] ------- [13:2 7:0 32 7] [6] 1 0
r 15.713720470 _1_ RTR  --- 27 cbr 532 [13a 1 0 800] ------- [0:0 13:0 32 1] [6] 1 0
SFf 15.713720470 _1_ 27 [0 -> 13] 1 to 7
f 15.713720470 _1_ RTR  --- 27 cbr 532 [13a 1 0 800] ------- [0:0 13:0 31 7] [6] 1 0
r 15.719494470 _7_ RTR  --- 27 cbr 532 [13a 7 1 800] ------- [0:0 13:0 31 7] [6] 2 0
SFf 15.719494470 _7_ 27 [0 -> 13] 1 to 13
f 15.719494470 _7_ RTR  --- 27 cbr 532 [13a 7 1 800] ------- [0:0 13:0 30 13] [6] 2 0
r 15.725468470 _13_ RTR  --- 27 cbr 532 [13a d 7 800] ------- [0:0 13:0 30 13] [6] 3 0
r 15.725468470 _13_ AGT  --- 27 cbr 512 [13a d 7 800] ------- [0:0 13:0 30 13] [6] 3 0
s 15.793760917 _1_ AGT  --- 28 cbr 512 [0 0 0 0] ------- [1:0 13:1 32 0] [7] 0 0
r 15.793760917 _1_ RTR  --- 28 cbr 512 [0 0 0 0] ------- [1:0 13:1 32 0] [7] 0 0
SFs 15.793760917 _1_ 28 [1 -> 13] 1(0) to 7 
s 15.793760917 _1_ RTR  --- 28 cbr 532 [0 0 0 0] ------- [1:0 13:1 32 7] [7] 0 0
r 15.799550917 _7_ RTR  --- 28 cbr 532 [13a 7 1 800] ------- [1:0 13:1 32 7] [7] 1 0
SFf 15.799550917 _7_ 28 [1 -> 13] 1 to 13
f 15.799550917 _7_ RTR  --- 28 cbr 532 [13a 7 1 800] ------- [1:0 13:1 31 13] [7] 1 0
r 15.805584917 _13_ RTR  --- 28 cbr 532 [13a d 7 800] ------- [1:0 13:1 31 13] [7] 2 0
r 15.805584917 _13_ AGT  --- 28 cbr 512 [13a d 7 800] ------- [1:0 13:1 31 13] [7] 2 0
s 15.814395609 _13_ AGT  --- 29 cbr 512 [0 0 0 0] ------- [13:2 7:0 32 0] [7] 0 0
r 15.814395609 _13_ RTR  --- 29 cbr 512 [0 0 0 0] ------- [13:2 7:0 32 0] [7] 0 0
SFs 15.814395609 _13_ 29 [13 -> 7] 1(0) to 7 
s 15.814395609 _13_ RTR  --- 29 cbr 532 [0 0 0 0] ------- [13:2 7:0 32 7] [7] 0 0
r 15.820025609 _7_ RTR  --- 29 cbr 532 [13a 7 d 800] ------- [13:2 7:0 32 7] [7] 1 0
r 15.820025609 _7_ AGT  --- 29 cbr 512 [13a 7 d 800] ------- [13:2 7:0 32 7] [7] 1 0
s 15.839963859 _0_ AGT  --- 30 cbr 512 [0 0 0 0] ------- [0:0 13:0 32 0] [7] 0 0
r 15.839963859 _0_ RTR  --- 30 cbr 512 [0 0 0 0] ------- [0:0 13:0 32 0] [7] 0 0
SFs 15.839963859 _0_ 30 [0 -> 13] 1(0) to 1 
s 15.839963859 _0_ RTR  --- 30 cbr 532 [0 0 0 0] ------- [0:0 13:0 32 1] [7] 0 0
r 15.845793859 _1_ RTR  --- 30 cbr 532 [13a 1 0 800] ------- [0:0 13:0 32 1] [7] 1 0
SFf 15.845793859 _1_ 30 [0 -> 13] 1 to 7
f 15.845793859 _1_ RTR  --- 30 cbr 532 [13a 1 0 800] ------- [0:0 13:0 31 7] [7] 1 0
r 15.851667859 _7_ RTR  --- 30 cbr 532 [13a 7 1 800] ------- [0:0 13:0 31 7] [7] 2 0
SFf 15.851667859 _7_ 30 [0 -> 13] 1 to 13
f 15.851667859 _7_ RTR  --- 30 cbr 532 [13a 7 1 800] ------- [0:0 13:0 30 13] [7] 2 0
r 15.857521859 _13_ RTR  --- 30 cbr 532 [13a d 7 800] ------- [0:0 13:0 30 13] [7] 3 0
r 15.857521859 _13_ AGT  --- 30 cbr 512 [13a d 7 800] ------- [0:0 13:0 30 13] [7] 3 0
s 15.921913187 _1_ AGT  --- 31 cbr 512 [0 0 0 0] ------- [1:0 13:1 32 0] [8] 0 0
r 15.921913187 _1_ RTR  --- 31 cbr 512 [0 0 0 0] ------- [1:0 13:1 32 0] [8] 0 0
SFs 15.921913187 _1_ 31 [1 -> 13] 1(0) to 7 
s 15.921913187 _1_ RTR  --- 31 cbr 532 [0 0 0 0] ------- [1:0 13:1 32 7] [8] 0 0
r 15.927783187 _7_ RTR  --- 31 cbr 532 [13a 7 1 800] ------- [1:0 13:1 32 7] [8] 1 0
SFf 15.927783187 _7_ 31 [1 -> 13] 1 to 13
f 15.927783187 _7_ RTR  --- 31 cbr 532 [13a 7 1 800] ------- [1:0 13:1 31 13] [8] 1 0
s 15.930946424 _0_ AGT  --- 32 cbr 512 [0 0 0 0] ------- [0:0 13:0 32 0] [8] 0 0
r 15.930946424 _0_ RTR  --- 32 cbr 512 [0 0 0 0] ------- [0:0 13:0 32 0] [8] 0 0
SFs 15.930946424 _0_ 32 [0 -> 13] 1(0) to 1 
s 15.930946424 _0_ RTR  --- 32 cbr 532 [0 0 0 0] ------- [0:0 13:0 32 1] [8] 0 0
r 15.933757187 _13_ RTR  --- 31 cbr 532 [13a d 7 800] ------- [1:0 13:1 31 13] [8] 2 0
r 15.933757187 _13_ AGT  --- 31 cbr 512 [13a d 7 800] ------- [1:0 13:1 31 13] [8] 2 0
r 15.940156677 _1_ RTR  --- 32 cbr 532 [13a 1 0 800] ------- [0:0 13:0 32 1] [8] 1 0
SFf 15.940156677 _1_ 32 [0 -> 13] 1 to 7
f 15.940156677 _1_ RTR  --- 32 cbr 532 [13a 1 0 800] ------- [0:0 13:0 31 7] [8] 1 0
r 15.946430677 _7_ RTR  --- 32 cbr 532 [13a 7 1 800] ------- [0:0 13:0 31 7] [8] 2 0
SFf 15.946430677 _7_ 32 [0 -> 13] 1 to 13
f 15.946430677 _7_ RTR  --- 32 cbr 532 [13a 7 1 800] ------- [0:0 13:0 30 13] [8] 2 0
r 15.952724677 _13_ RTR  --- 32 cbr 532 [13a d 7 800] ------- [0:0 13:0 30 13] [8] 3 0
r 15.952724677 _13_ AGT  --- 32 cbr 512 [13a d 7 800] ------- [0:0 13:0 30 13] [8] 3 0
s 15.952735713 _13_ AGT  --- 33 cbr 512 [0 0 0 0] ------- [13:2 7:0 32 0] [8] 0 0
r 15.952735713 _13_ RTR  --- 33 cbr 512 [0 0 0 0] ------- [13:2 7:0 32 0] [8] 0 0
SFs 15.952735713 _13_ 33 [13 -> 7] 1(0) to 7 
s 15.952735713 _13_ RTR  --- 33 cbr 532 [0 0 0 0] ------- [13:2 7:0 32 7] [8] 0 0
r 15.958738677 _7_ RTR  --- 33 cbr 532 [13a 7 d 800] ------- [13:2 7:0 32 7] [8] 1 0
r 15.958738677 _7_ AGT  --- 33 cbr 512 [13a 7 d 800] ------- [13:2 7:0 32 7] [8] 1 0
s 15.986677095 _1_ AGT  --- 34 cbr 512 [0 0 0 0] ------- [1:0 13:1 32 0] [9] 0 0
r 15.986677095 _1_ RTR  --- 34 cbr 512 [0 0 0 0] ------- [1:0 13:1 32 0] [9] 0 0
SFs 15.986677095 _1_ 34 [1 -> 13] 1(0) to 7 
s 15.986677095 _1_ RTR  --- 34 cbr 532 [0 0 0 0] ------- [1:0 13:1 32 7] [9] 0 0
r 15.992467095 _7_ RTR  --- 34 cbr 532 [13a 7 1 800] ------- [1:0 13:1 32 7] [9] 1 0
SFf 15.992467095 _7_ 34 [1 -> 13] 1 to 13
f 15.992467095 _7_ RTR  --- 34 cbr 532 [13a 7 1 800] ------- [1:0 13:1 31 13] [9] 1 0
r 15.998721095 _13_ RTR  --- 34 cbr 532 [13a d 7 800] ------- [1:0 13:1 31 13] [9] 2 0
r 15.998721095 _13_ AGT  --- 34 cbr 512 [13a d 7 800] ------- [1:0 13:1 31 13] [9] 2 0
s 16.027565795 _13_ AGT  --- 35 cbr 512 [0 0 0 0] ------- [13:2 7:0 32 0] [9] 0 0
r 16.027565795 _13_ RTR  --- 35 cbr 512 [0 0 0 0] ------- [13:2 7:0 32 0] [9] 0 0
SFs 16.027565795 _13_ 35 [13 -> 7] 1(0) to 7 
s 16.027565795 _13_ RTR  --- 35 cbr 532 [0 0 0 0] ------- [13:2 7:0 32 7] [9] 0 0
r 16.033455795 _7_ RTR  --- 35 cbr 532 [13a 7 d 800] ------- [13:2 7:0 32 7] [9] 1 0
r 16.033455795 _7_ AGT  --- 35 cbr 512 [13a 7 d 800] ------- [13:2 7:0 32 7] [9] 1 0
s 16.038382467 _0_ AGT  --- 36 cbr 512 [0 0 0 0] ------- [0:0 13:0 32 0] [9] 0 0
r 16.038382467 _0_ RTR  --- 36 cbr 512 [0 0 0 0] ------- [0:0 13:0 32 0] [9] 0 0
SFs 16.038382467 _0_ 36 [0 -> 13] 1(0) to 1 
s 16.038382467 _0_ RTR  --- 36 cbr 532 [0 0 0 0] ------- [0:0 13:0 32 1] [9] 0 0
r 16.044072467 _1_ RTR  --- 36 cbr 532 [13a 1 0 800] ------- [0:0 13:0 32 1] [9] 1 0
SFf 16.044072467 _1_ 36 [0 -> 13] 1 to 7
f 16.044072467 _1_ RTR  --- 36 cbr 532 [13a 1 0 800] ------- [0:0 13:0 31 7] [9] 1 0
r 16.050106467 _7_ RTR  --- 36 cbr 532 [13a 7 1 800] ------- [0:0 13:0 31 7] [9] 2 0
SFf 16.050106467 _7_ 36 [0 -> 13] 1 to 13
f 16.050106467 _7_ RTR  --- 36 cbr 532 [13a 7 1 800] ------- [0:0 13:0 30 13] [9] 2 0
r 16.056180467 _13_ RTR  --- 36 cbr 532 [13a d 7 800] ------- [0:0 13:0 30 13] [9] 3 0
r 16.056180467 _13_ AGT  --- 36 cbr 512 [13a d 7 800] ------- [0:0 13:0 30 13] [9] 3 0
s 16.069472829 _1_ AGT  --- 37 cbr 512 [0 0 0 0] ------- [1:0 13:1 32 0] [10] 0 0
r 16.069472829 _1_ RTR  --- 37 cbr 512 [0 0 0 0] ------- [1:0 13:1 32 0] [10] 0 0
SFs 16.069472829 _1_ 37 [1 -> 13] 1(0) to 7 
s 16.069472829 _1_ RTR  --- 37 cbr 532 [0 0 0 0] ------- [1:0 13:1 32 7] [10] 0 0
r 16.075462829 _7_ RTR  --- 37 cbr 532 [13a 7 1 800] ------- [1:0 13:1 32 7] [10] 1 0
SFf 16.075462829 _7_ 37 [1 -> 13] 1 to 13
f 16.075462829 _7_ RTR  --- 37 cbr 532 [13a 7 1 800] ------- [1:0 13:1 31 13] [10] 1 0
r 16.081436829 _13_ RTR  --- 37 cbr 532 [13a d 7 800] ------- [1:0 13:1 31 13] [10] 2 0
r 16.081436829 _13_ AGT  --- 37 cbr 512 [13a d 7 800] ------- [1:0 13:1 31 13] [10] 2 0
s 16.116715603 _0_ AGT  --- 38 cbr 512 [0 0 0 0] ------- [0:0 13:0 32 0] [10] 0 0
r 16.116715603 _0_ RTR  --- 38 cbr 512 [0 0 0 0] ------- [0:0 13:0 32 0] [10] 0 0
SFs 16.116715603 _0_ 38 [0 -> 13] 1(0) to 1 
s 16.116715603 _0_ RTR  --- 38 cbr 532 [0 0 0 0] ------- [0:0 13:0 32 1] [10] 0 0
r 16.122605603 _1_ RTR  --- 38 cbr 532 [13a 1 0 800] ------- [0:0 13:0 32 1] [10] 1 0
SFf 16.122605603 _1_ 38 [0 -> 13] 1 to 7
f 16.122605603 _1_ RTR  --- 38 cbr 532 [13a 1 0 800] ------- [0:0 13:0 31 7] [10] 1 0
r 16.128859603 _7_ RTR  --- 38 cbr 532 [13a 7 1 800] ------- [0:0 13:0 31 7] [10] 2 0
SFf 16.128859603 _7_ 38 [0 -> 13] 1 to 13
f 16.128859603 _7_ RTR  --- 38 cbr 532 [13a 7 1 800] ------- [0:0 13:0 30 13] [10] 2 0
r 16.135133603 _13_ RTR  --- 38 cbr 532 [13a d 7 800] ------- [0:0 13:0 30 13] [10] 3 0
r 16.135133603 _13_ AGT  --- 38 cbr 512 [13a d 7 800] ------- [0:0 13:0 30 13] [10] 3 0
s 16.152740321 _13_ AGT  --- 39 cbr 512 [0 0 0 0] ------- [13:2 7:0 32 0] [10] 0 0
r 16.152740321 _13_ RTR  --- 39 cbr 512 [0 0 0 0] ------- [13:2 7:0 32 0] [10] 0 0
SFs 16.152740321 _13_ 39 [13 -> 7] 1(0) to 7 
s 16.152740321 _13_ RTR  --- 39 cbr 532 [0 0 0 0] ------- [13:2 7:0 32 7] [10] 0 0
r 16.158530321 _7_ RTR  --- 39 cbr 532 [13a 7 d 800] ------- [13:2 7:0 32 7] [10] 1 0
r 16.158530321 _7_ AGT  --- 39 cbr 512 [13a 7 d 800] ------- [13:2 7:0 32 7] [10] 1 0
s 16.169977879 _1_ AGT  --- 40 cbr 512 [0 0 0 0] ------- [1:0 13:1 32 0] [11] 0 0
r 16.169977879 _1_ RTR  --- 40 cbr 512 [0 0 0 0] ------- [1:0 13:1 32 0] [11] 0 0
SFs 16.169977879 _1_ 40 [1 -> 13] 1(0) to 7 
s 16.169977879 _1_ RTR  --- 40 cbr 532 [0 0 0 0] ------- [1:0 13:1 32 7] [11] 0 0
r 16.176027879 _7_ RTR  --- 40 cbr 532 [13a 7 1 800] ------- [1:0 13:1 32 7] [11] 1 0
SFf 16.176027879 _7_ 40 [1 -> 13] 1 to 13
f 16.176027879 _7_ RTR  --- 40 cbr 532 [13a 7 1 800] ------- [1:0 13:1 31 13] [11] 1 0
r 16.182101879 _13_ RTR  --- 40 cbr 532 [13a d 7 800] ------- [1:0 13:1 31 13] [11] 2 0
r 16.182101879 _13_ AGT  --- 40 cbr 512 [13a d 7 800] ------- [1:0 13:1 31 13] [11] 2 0
s 16.195144487 _0_ AGT  --- 41 cbr 512 [0 0 0 0] ------- [0:0 13:0 32 0] [11] 0 0
r 16.195144487 _0_ RTR  --- 41 cbr 512 [0 0 0 0] ------- [0:0 13:0 32 0] [11] 0 0
SFs 16.195144487 _0_ 41 [0 -> 13] 1(0) to 1 
s 16.195144487 _0_ RTR  --- 41 cbr 532 [0 0 0 0] ------- [0:0 13:0 32 1] [11] 0 0
r 16.200754487 _1_ RTR  --- 41 cbr 532 [13a 1 0 800] ------- [0:0 13:0 32 1] [11] 1 0
SFf 16.200754487 _1_ 41 [0 -> 13] 1 to 7
f 16.200754487 _1_ RTR  --- 41 cbr 532 [13a 1 0 800] ------- [0:0 13:0 31 7] [11] 1 0
r 16.206868487 _7_ RTR  --- 41 cbr 532 [13a 7 1 800] ------- [0:0 13:0 31 7] [11] 2 0
SFf 16.206868487 _7_ 41 [0 -> 13] 1 to 13
f 16.206868487 _7_ RTR  --- 41 cbr 532 [13a 7 1 800] ------- [0:0 13:0 30 13] [11] 2 0
r 16.212762487 _13_ RTR  --- 41 cbr 532 [13a d 7 800] ------- [0:0 13:0 30 13] [11] 3 0
r 16.212762487 _13_ AGT  --- 41 cbr 512 [13a d 7 800] ------- [0:0 13:0 30 13] [11] 3 0
s 16.278663360 _13_ AGT  --- 42 cbr 512 [0 0 0 0] ------- [13:2 7:0 32 0] [11] 0 0
r 16.278663360 _13_ RTR  --- 42 cbr 512 [0 0 0 0] ------- [13:2 7:0 32 0] [11] 0 0
SFs 16.278663360 _13_ 42 [13 -> 7] 1(0) to 7 
s 16.278663360 _13_ RTR  --- 42 cbr 532 [0 0 0 0] ------- [13:2 7:0 32 7] [11] 0 0
r 16.284473360 _7_ RTR  --- 42 cbr 532 [13a 7 d 800] ------- [13:2 7:0 32 7] [11] 1 0
r 16.284473360 _7_ AGT  --- 42 cbr 512 [13a 7 d 800] ------- [13:2 7:0 32 7] [11] 1 0
s 16.304978441 _1_ AGT  --- 43 cbr 512 [0 0 0 0] ------- [1:0 13:1 32 0] [12] 0 0
r 16.304978441 _1_ RTR  --- 43 cbr 512 [0 0 0 0] ------- [1:0 13:1 32 0] [12] 0 0
SFs 16.304978441 _1_ 43 [1 -> 13] 1(0) to 7 
s 16.304978441 _1_ RTR  --- 43 cbr 532 [0 0 0 0] ------- [1:0 13:1 32 7] [12] 0 0
r 16.310548441 _7_ RTR  --- 43 cbr 532 [13a 7 1 800] ------- [1:0 13:1 32 7] [12] 1 0
SFf 16.310548441 _7_ 43 [1 -> 13] 1 to 13
f 16.310548441 _7_ RTR  --- 43 cbr 532 [13a 7 1 800] ------- [1:0 13:1 31 13] [12] 1 0
r 16.316782441 _13_ RTR  --- 43 cbr 532 [13a d 7 800] ------- [1:0 13:1 31 13] [12] 2 0
r 16.316782441 _13_ AGT  --- 43 cbr 512 [13a d 7 800] ------- [1:0 13:1 31 13] [12] 2 0
s 16.334518995 _0_ AGT  --- 44 cbr 512 [0 0 0 0] ------- [0:0 13:0 32 0] [12] 0 0
r 16.334518995 _0_ RTR  --- 44 cbr 512 [0 0 0 0] ------- [0:0 13:0 32 0] [12] 0 0
SFs 16.334518995 _0_ 44 [0 -> 13] 1(0) to 1 
s 16.334518995 _0_ RTR  --- 44 cbr 532 [0 0 0 0] ------- [0:0 13:0 32 1] [12] 0 0
r 16.340148995 _1_ RTR  --- 44 cbr 532 [13a 1 0 800] ------- [0:0 13:0 32 1] [12] 1 0
SFf 16.340148995 _1_ 44 [0 -> 13] 1 to 7
f 16.340148995 _1_ RTR  --- 44 cbr 532 [13a 1 0 800] ------- [0:0 13:0 31 7] [12] 1 0
r 16.346242995 _7_ RTR  --- 44 cbr 532 [13a 7 1 800] ------- [0:0 13:0 31 7] [12] 2 0
SFf 16.346242995 _7_ 44 [0 -> 13] 1 to 13
f 16.346242995 _7_ RTR  --- 44 cbr 532 [13a 7 1 800] ------- [0:0 13:0 30 13] [12] 2 0
r 16.352196995 _13_ RTR  --- 44 cbr 532 [13a d 7 800] ------- [0:0 13:0 30 13] [12] 3 0
r 16.352196995 _13_ AGT  --- 44 cbr 512 [13a d 7 800] ------- [0:0 13:0 30 13] [12] 3 0
s 16.360764132 _13_ AGT  --- 45 cbr 512 [0 0 0 0] ------- [13:2 7:0 32 0] [12] 0 0
r 16.360764132 _13_ RTR  --- 45 cbr 512 [0 0 0 0] ------- [13:2 7:0 32 0] [12] 0 0
SFs 16.360764132 _13_ 45 [13 -> 7] 1(0) to 7 
s 16.360764132 _13_ RTR  --- 45 cbr 532 [0 0 0 0] ------- [13:2 7:0 32 7] [12] 0 0
r 16.366494132 _7_ RTR  --- 45 cbr 532 [13a 7 d 800] ------- [13:2 7:0 32 7] [12] 1 0
r 16.366494132 _7_ AGT  --- 45 cbr 512 [13a 7 d 800] ------- [13:2 7:0 32 7] [12] 1 0
s 16.373265028 _1_ AGT  --- 46 cbr 512 [0 0 0 0] ------- [1:0 13:1 32 0] [13] 0 0
r 16.373265028 _1_ RTR  --- 46 cbr 512 [0 0 0 0] ------- [1:0 13:1 32 0] [13] 0 0
SFs 16.373265028 _1_ 46 [1 -> 13] 1(0) to 7 
s 16.373265028 _1_ RTR  --- 46 cbr 532 [0 0 0 0] ------- [1:0 13:1 32 7] [13] 0 0