n -t * -s 0  -x 100 -y 0 -Z 0 -z 30  -v circle -c black
n -t * -s 1  -x 300 -y 0 -Z 0 -z 30  -v circle -c black
n -t * -s 2  -x 500 -y 0 -Z 0 -z 30  -v circle -c black
n -t * -s 3  -x 100 -y 100 -Z 0 -z 30  -v circle -c black
n -t * -s 4  -x 300 -y 100 -Z 0 -z 30  -v circle -c black
n -t * -s 5  -x 500 -y 100 -Z 0 -z 30  -v circle -c black
n -t * -s 6  -x 100 -y 200 -Z 0 -z 30  -v circle -c black
n -t * -s 7  -x 300 -y 200 -Z 0 -z 30  -v circle -c black
n -t * -s 8  -x 500 -y 200 -Z 0 -z 30  -v circle -c black
n -t * -s 9  -x 100 -y 300 -Z 0 -z 30  -v circle -c black
n -t * -s 10  -x 300 -y 300 -Z 0 -z 30  -v circle -c black
n -t * -s 11  -x 500 -y 300 -Z 0 -z 30  -v circle -c black
n -t * -s 12  -x 100 -y 400 -Z 0 -z 30  -v circle -c black
n -t * -s 13  -x 300 -y 400 -Z 0 -z 30  -v circle -c black
n -t * -s 14  -x 500 -y 400 -Z 0 -z 30  -v circle -c black
n -t * -s 15  -x 100 -y 500 -Z 0 -z 30  -v circle -c black
n -t * -s 16  -x 300 -y 500 -Z 0 -z 30  -v circle -c black
n -t * -s 17  -x 500 -y 500 -Z 0 -z 30  -v circle -c black
n -t * -s 18  -x 400 -y 500 -Z 0 -z 30  -v circle -c black
V -t * -v 1.0a5 -a 0
W -t * -x 500 -y 500
A -t * -n 1 -p 0 -o 0xffffffff -c 31 -a 1
A -t * -h 1 -m 2147483647 -s 0
+ -t 15.000000000 -s 0 -d -1 -p cbr -e 512 -c 2 -a 0 -i 0 -k AGT 
- -t 15.000000000 -s 0 -d -1 -p cbr -e 512 -c 2 -a 0 -i 0 -k AGT
h -t 15.000000000 -s 0 -d -1 -p cbr -e 512 -c 2 -a 0 -i 0 -k AGT
+ -t 15.000000000 -s 1 -d -1 -p cbr -e 512 -c 2 -a 0 -i 2 -k AGT 
- -t 15.000000000 -s 1 -d -1 -p cbr -e 512 -c 2 -a 0 -i 2 -k AGT
h -t 15.000000000 -s 1 -d -1 -p cbr -e 512 -c 2 -a 0 -i 2 -k AGT
+ -t 15.000000000 -s 13 -d -1 -p cbr -e 512 -c 2 -a 0 -i 4 -k AGT 
- -t 15.000000000 -s 13 -d -1 -p cbr -e 512 -c 2 -a 0 -i 4 -k AGT
h -t 15.000000000 -s 13 -d -1 -p cbr -e 512 -c 2 -a 0 -i 4 -k AGT
+ -t 15.003113032 -s 13 -d -1 -p DSR -e 32 -c 2 -a 0 -i 5 -k RTR 
- -t 15.003113032 -s 13 -d -1 -p DSR -e 32 -c 2 -a 0 -i 5 -k RTR
h -t 15.003113032 -s 13 -d -1 -p DSR -e 32 -c 2 -a 0 -i 5 -k RTR
+ -t 15.003179323 -s 1 -d -1 -p DSR -e 32 -c 2 -a 0 -i 3 -k RTR 
- -t 15.003179323 -s 1 -d -1 -p DSR -e 32 -c 2 -a 0 -i 3 -k RTR
h -t 15.003179323 -s 1 -d -1 -p DSR -e 32 -c 2 -a 0 -i 3 -k RTR
+ -t 15.003424088 -s 0 -d -1 -p DSR -e 32 -c 2 -a 0 -i 1 -k RTR 
- -t 15.003424088 -s 0 -d -1 -p DSR -e 32 -c 2 -a 0 -i 1 -k RTR
h -t 15.003424088 -s 0 -d -1 -p DSR -e 32 -c 2 -a 0 -i 1 -k RTR
+ -t 15.005033032 -s 7 -d 1 -p DSR -e 48 -c 2 -a 0 -i 8 -k RTR 
- -t 15.005033032 -s 7 -d 1 -p DSR -e 48 -c 2 -a 0 -i 8 -k RTR
h -t 15.005033032 -s 7 -d 1 -p DSR -e 48 -c 2 -a 0 -i 8 -k RTR
+ -t 15.005161692 -s 7 -d 13 -p DSR -e 44 -c 2 -a 0 -i 7 -k RTR 
- -t 15.005161692 -s 7 -d 13 -p DSR -e 44 -c 2 -a 0 -i 7 -k RTR
h -t 15.005161692 -s 7 -d 13 -p DSR -e 44 -c 2 -a 0 -i 7 -k RTR
+ -t 15.006811032 -s 1 -d 7 -p cbr -e 552 -c 2 -a 0 -i 2 -k RTR 
- -t 15.006811032 -s 1 -d 7 -p cbr -e 552 -c 2 -a 0 -i 2 -k RTR
h -t 15.006811032 -s 1 -d 7 -p cbr -e 552 -c 2 -a 0 -i 2 -k RTR
+ -t 15.008117975 -s 1 -d 0 -p DSR -e 52 -c 2 -a 0 -i 9 -k RTR 
- -t 15.008117975 -s 1 -d 0 -p DSR -e 52 -c 2 -a 0 -i 9 -k RTR
h -t 15.008117975 -s 1 -d 0 -p DSR -e 52 -c 2 -a 0 -i 9 -k RTR
+ -t 15.013837975 -s 7 -d 13 -p cbr -e 552 -c 2 -a 0 -i 2 -k RTR 
- -t 15.013837975 -s 7 -d 13 -p cbr -e 552 -c 2 -a 0 -i 2 -k RTR
h -t 15.013837975 -s 7 -d 13 -p cbr -e 552 -c 2 -a 0 -i 2 -k RTR
+ -t 15.015952641 -s 0 -d 1 -p cbr -e 556 -c 2 -a 0 -i 0 -k RTR 
- -t 15.015952641 -s 0 -d 1 -p cbr -e 556 -c 2 -a 0 -i 0 -k RTR
h -t 15.015952641 -s 0 -d 1 -p cbr -e 556 -c 2 -a 0 -i 0 -k RTR
+ -t 15.022238641 -s 1 -d 7 -p cbr -e 556 -c 2 -a 0 -i 0 -k RTR 
- -t 15.022238641 -s 1 -d 7 -p cbr -e 556 -c 2 -a 0 -i 0 -k RTR
h -t 15.022238641 -s 1 -d 7 -p cbr -e 556 -c 2 -a 0 -i 0 -k RTR
+ -t 15.024118918 -s 13 -d 7 -p cbr -e 548 -c 2 -a 0 -i 4 -k RTR 
- -t 15.024118918 -s 13 -d 7 -p cbr -e 548 -c 2 -a 0 -i 4 -k RTR
h -t 15.024118918 -s 13 -d 7 -p cbr -e 548 -c 2 -a 0 -i 4 -k RTR
+ -t 15.030450251 -s 7 -d 13 -p cbr -e 556 -c 2 -a 0 -i 0 -k RTR 
- -t 15.030450251 -s 7 -d 13 -p cbr -e 556 -c 2 -a 0 -i 0 -k RTR
h -t 15.030450251 -s 7 -d 13 -p cbr -e 556 -c 2 -a 0 -i 0 -k RTR
r -t 15.036422918 -s 7 -d 7 -p cbr -e 512 -c 2 -a 0 -i 4 -k AGT
r -t 15.042336918 -s 13 -d 13 -p cbr -e 512 -c 2 -a 0 -i 2 -k AGT
r -t 15.048623584 -s 13 -d 13 -p cbr -e 512 -c 2 -a 0 -i 0 -k AGT
+ -t 15.070377957 -s 0 -d -1 -p cbr -e 512 -c 2 -a 0 -i 10 -k AGT 
- -t 15.070377957 -s 0 -d -1 -p cbr -e 512 -c 2 -a 0 -i 10 -k AGT
h -t 15.070377957 -s 0 -d -1 -p cbr -e 512 -c 2 -a 0 -i 10 -k AGT
+ -t 15.070377957 -s 0 -d 1 -p cbr -e 556 -c 2 -a 0 -i 10 -k RTR 
- -t 15.070377957 -s 0 -d 1 -p cbr -e 556 -c 2 -a 0 -i 10 -k RTR
h -t 15.070377957 -s 0 -d 1 -p cbr -e 556 -c 2 -a 0 -i 10 -k RTR
+ -t 15.076179957 -s 1 -d 7 -p cbr -e 556 -c 2 -a 0 -i 10 -k RTR 
- -t 15.076179957 -s 1 -d 7 -p cbr -e 556 -c 2 -a 0 -i 10 -k RTR
h -t 15.076179957 -s 1 -d 7 -p cbr -e 556 -c 2 -a 0 -i 10 -k RTR
+ -t 15.082405957 -s 7 -d 13 -p cbr -e 556 -c 2 -a 0 -i 10 -k RTR 
- -t 15.082405957 -s 7 -d 13 -p cbr -e 556 -c 2 -a 0 -i 10 -k RTR
h -t 15.082405957 -s 7 -d 13 -p cbr -e 556 -c 2 -a 0 -i 10 -k RTR
r -t 15.088391957 -s 13 -d 13 -p cbr -e 512 -c 2 -a 0 -i 10 -k AGT
+ -t 15.101381756 -s 1 -d -1 -p cbr -e 512 -c 2 -a 0 -i 11 -k AGT 
- -t 15.101381756 -s 1 -d -1 -p cbr -e 512 -c 2 -a 0 -i 11 -k AGT
h -t 15.101381756 -s 1 -d -1 -p cbr -e 512 -c 2 -a 0 -i 11 -k AGT
+ -t 15.101381756 -s 1 -d 7 -p cbr -e 552 -c 2 -a 0 -i 11 -k RTR 
- -t 15.101381756 -s 1 -d 7 -p cbr -e 552 -c 2 -a 0 -i 11 -k RTR
h -t 15.101381756 -s 1 -d 7 -p cbr -e 552 -c 2 -a 0 -i 11 -k RTR
+ -t 15.107531756 -s 7 -d 13 -p cbr -e 552 -c 2 -a 0 -i 11 -k RTR 
- -t 15.107531756 -s 7 -d 13 -p cbr -e 552 -c 2 -a 0 -i 11 -k RTR
h -t 15.107531756 -s 7 -d 13 -p cbr -e 552 -c 2 -a 0 -i 11 -k RTR
r -t 15.113665756 -s 13 -d 13 -p cbr -e 512 -c 2 -a 0 -i 11 -k AGT
+ -t 15.130138663 -s 13 -d -1 -p cbr -e 512 -c 2 -a 0 -i 12 -k AGT 
- -t 15.130138663 -s 13 -d -1 -p cbr -e 512 -c 2 -a 0 -i 12 -k AGT
h -t 15.130138663 -s 13 -d -1 -p cbr -e 512 -c 2 -a 0 -i 12 -k AGT
+ -t 15.130138663 -s 13 -d 7 -p cbr -e 548 -c 2 -a 0 -i 12 -k RTR 
- -t 15.130138663 -s 13 -d 7 -p cbr -e 548 -c 2 -a 0 -i 12 -k RTR
h -t 15.130138663 -s 13 -d 7 -p cbr -e 548 -c 2 -a 0 -i 12 -k RTR
r -t 15.135736663 -s 7 -d 7 -p cbr -e 512 -c 2 -a 0 -i 12 -k AGT
+ -t 15.163905358 -s 1 -d -1 -p cbr -e 512 -c 2 -a 0 -i 13 -k AGT 
- -t 15.163905358 -s 1 -d -1 -p cbr -e 512 -c 2 -a 0 -i 13 -k AGT
h -t 15.163905358 -s 1 -d -1 -p cbr -e 512 -c 2 -a 0 -i 13 -k AGT
+ -t 15.163905358 -s 1 -d 7 -p cbr -e 552 -c 2 -a 0 -i 13 -k RTR 
- -t 15.163905358 -s 1 -d 7 -p cbr -e 552 -c 2 -a 0 -i 13 -k RTR
h -t 15.163905358 -s 1 -d 7 -p cbr -e 552 -c 2 -a 0 -i 13 -k RTR
+ -t 15.169695358 -s 7 -d 13 -p cbr -e 552 -c 2 -a 0 -i 13 -k RTR 
- -t 15.169695358 -s 7 -d 13 -p cbr -e 552 -c 2 -a 0 -i 13 -k RTR
h -t 15.169695358 -s 7 -d 13 -p cbr -e 552 -c 2 -a 0 -i 13 -k RTR
r -t 15.175649358 -s 13 -d 13 -p cbr -e 512 -c 2 -a 0 -i 13 -k AGT
+ -t 15.209415203 -s 0 -d -1 -p cbr -e 512 -c 2 -a 0 -i 14 -k AGT 
- -t 15.209415203 -s 0 -d -1 -p cbr -e 512 -c 2 -a 0 -i 14 -k AGT
h -t 15.209415203 -s 0 -d -1 -p cbr -e 512 -c 2 -a 0 -i 14 -k AGT
+ -t 15.209415203 -s 0 -d 1 -p cbr -e 556 -c 2 -a 0 -i 14 -k RTR 
- -t 15.209415203 -s 0 -d 1 -p cbr -e 556 -c 2 -a 0 -i 14 -k RTR
h -t 15.209415203 -s 0 -d 1 -p cbr -e 556 -c 2 -a 0 -i 14 -k RTR
+ -t 15.214748797 -s 13 -d -1 -p cbr -e 512 -c 2 -a 0 -i 15 -k AGT 
- -t 15.214748797 -s 13 -d -1 -p cbr -e 512 -c 2 -a 0 -i 15 -k AGT
h -t 15.214748797 -s 13 -d -1 -p cbr -e 512 -c 2 -a 0 -i 15 -k AGT
+ -t 15.214748797 -s 13 -d 7 -p cbr -e 548 -c 2 -a 0 -i 15 -k RTR 
- -t 15.214748797 -s 13 -d 7 -p cbr -e 548 -c 2 -a 0 -i 15 -k RTR
h -t 15.214748797 -s 13 -d 7 -p cbr -e 548 -c 2 -a 0 -i 15 -k RTR
+ -t 15.215477203 -s 1 -d 7 -p cbr -e 556 -c 2 -a 0 -i 14 -k RTR 
- -t 15.215477203 -s 1 -d 7 -p cbr -e 556 -c 2 -a 0 -i 14 -k RTR
h -t 15.215477203 -s 1 -d 7 -p cbr -e 556 -c 2 -a 0 -i 14 -k RTR
+ -t 15.221923203 -s 7 -d 13 -p cbr -e 556 -c 2 -a 0 -i 14 -k RTR 
- -t 15.221923203 -s 7 -d 13 -p cbr -e 556 -c 2 -a 0 -i 14 -k RTR
h -t 15.221923203 -s 7 -d 13 -p cbr -e 556 -c 2 -a 0 -i 14 -k RTR
r -t 15.228029203 -s 13 -d 13 -p cbr -e 512 -c 2 -a 0 -i 14 -k AGT
r -t 15.234151203 -s 7 -d 7 -p cbr -e 512 -c 2 -a 0 -i 15 -k AGT
+ -t 15.269127474 -s 13 -d -1 -p cbr -e 512 -c 2 -a 0 -i 16 -k AGT 
- -t 15.269127474 -s 13 -d -1 -p cbr -e 512 -c 2 -a 0 -i 16 -k AGT
h -t 15.269127474 -s 13 -d -1 -p cbr -e 512 -c 2 -a 0 -i 16 -k AGT
+ -t 15.269127474 -s 13 -d 7 -p cbr -e 532 -c 2 -a 0 -i 16 -k RTR 
- -t 15.269127474 -s 13 -d 7 -p cbr -e 532 -c 2 -a 0 -i 16 -k RTR
h -t 15.269127474 -s 13 -d 7 -p cbr -e 532 -c 2 -a 0 -i 16 -k RTR
r -t 15.274937474 -s 7 -d 7 -p cbr -e 512 -c 2 -a 0 -i 16 -k AGT
+ -t 15.279260657 -s 1 -d -1 -p cbr -e 512 -c 2 -a 0 -i 17 -k AGT 
- -t 15.279260657 -s 1 -d -1 -p cbr -e 512 -c 2 -a 0 -i 17 -k AGT
h -t 15.279260657 -s 1 -d -1 -p cbr -e 512 -c 2 -a 0 -i 17 -k AGT
+ -t 15.279260657 -s 1 -d 7 -p cbr -e 532 -c 2 -a 0 -i 17 -k RTR 
- -t 15.279260657 -s 1 -d 7 -p cbr -e 532 -c 2 -a 0 -i 17 -k RTR
h -t 15.279260657 -s 1 -d 7 -p cbr -e 532 -c 2 -a 0 -i 17 -k RTR
+ -t 15.285210657 -s 7 -d 13 -p cbr -e 532 -c 2 -a 0 -i 17 -k RTR 
- -t 15.285210657 -s 7 -d 13 -p cbr -e 532 -c 2 -a 0 -i 17 -k RTR
h -t 15.285210657 -s 7 -d 13 -p cbr -e 532 -c 2 -a 0 -i 17 -k RTR
r -t 15.291244657 -s 13 -d 13 -p cbr -e 512 -c 2 -a 0 -i 17 -k AGT
+ -t 15.340015999 -s 0 -d -1 -p cbr -e 512 -c 2 -a 0 -i 18 -k AGT 
- -t 15.340015999 -s 0 -d -1 -p cbr -e 512 -c 2 -a 0 -i 18 -k AGT
h -t 15.340015999 -s 0 -d -1 -p cbr -e 512 -c 2 -a 0 -i 18 -k AGT
+ -t 15.340015999 -s 0 -d 1 -p cbr -e 532 -c 2 -a 0 -i 18 -k RTR 
- -t 15.340015999 -s 0 -d 1 -p cbr -e 532 -c 2 -a 0 -i 18 -k RTR
h -t 15.340015999 -s 0 -d 1 -p cbr -e 532 -c 2 -a 0 -i 18 -k RTR
+ -t 15.345925999 -s 1 -d 7 -p cbr -e 532 -c 2 -a 0 -i 18 -k RTR 
- -t 15.345925999 -s 1 -d 7 -p cbr -e 532 -c 2 -a 0 -i 18 -k RTR
h -t 15.345925999 -s 1 -d 7 -p cbr -e 532 -c 2 -a 0 -i 18 -k RTR
+ -t 15.352239999 -s 7 -d 13 -p cbr -e 532 -c 2 -a 0 -i 18 -k RTR 
- -t 15.352239999 -s 7 -d 13 -p cbr -e 532 -c 2 -a 0 -i 18 -k RTR
h -t 15.352239999 -s 7 -d 13 -p cbr -e 532 -c 2 -a 0 -i 18 -k RTR
r -t 15.358233999 -s 13 -d 13 -p cbr -e 512 -c 2 -a 0 -i 18 -k AGT
+ -t 15.418355543 -s 13 -d -1 -p cbr -e 512 -c 2 -a 0 -i 19 -k AGT 
- -t 15.418355543 -s 13 -d -1 -p cbr -e 512 -c 2 -a 0 -i 19 -k AGT
h -t 15.418355543 -s 13 -d -1 -p cbr -e 512 -c 2 -a 0 -i 19 -k AGT
+ -t 15.418355543 -s 13 -d 7 -p cbr -e 532 -c 2 -a 0 -i 19 -k RTR 
- -t 15.418355543 -s 13 -d 7 -p cbr -e 532 -c 2 -a 0 -i 19 -k RTR
h -t 15.418355543 -s 13 -d 7 -p cbr -e 532 -c 2 -a 0 -i 19 -k RTR
r -t 15.423945543 -s 7 -d 7 -p cbr -e 512 -c 2 -a 0 -i 19 -k AGT
+ -t 15.424026400 -s 1 -d -1 -p cbr -e 512 -c 2 -a 0 -i 20 -k AGT 
- -t 15.424026400 -s 1 -d -1 -p cbr -e 512 -c 2 -a 0 -i 20 -k AGT
h -t 15.424026400 -s 1 -d -1 -p cbr -e 512 -c 2 -a 0 -i 20 -k AGT
+ -t 15.424026400 -s 1 -d 7 -p cbr -e 532 -c 2 -a 0 -i 20 -k RTR 
- -t 15.424026400 -s 1 -d 7 -p cbr -e 532 -c 2 -a 0 -i 20 -k RTR
h -t 15.424026400 -s 1 -d 7 -p cbr -e 532 -c 2 -a 0 -i 20 -k RTR
+ -t 15.430130210 -s 7 -d 13 -p cbr -e 532 -c 2 -a 0 -i 20 -k RTR 
- -t 15.430130210 -s 7 -d 13 -p cbr -e 532 -c 2 -a 0 -i 20 -k RTR
h -t 15.430130210 -s 7 -d 13 -p cbr -e 532 -c 2 -a 0 -i 20 -k RTR
r -t 15.436304210 -s 13 -d 13 -p cbr -e 512 -c 2 -a 0 -i 20 -k AGT
+ -t 15.486892035 -s 0 -d -1 -p cbr -e 512 -c 2 -a 0 -i 21 -k AGT 
- -t 15.486892035 -s 0 -d -1 -p cbr -e 512 -c 2 -a 0 -i 21 -k AGT
h -t 15.486892035 -s 0 -d -1 -p cbr -e 512 -c 2 -a 0 -i 21 -k AGT
+ -t 15.486892035 -s 0 -d 1 -p cbr -e 532 -c 2 -a 0 -i 21 -k RTR 
- -t 15.486892035 -s 0 -d 1 -p cbr -e 532 -c 2 -a 0 -i 21 -k RTR
h -t 15.486892035 -s 0 -d 1 -p cbr -e 532 -c 2 -a 0 -i 21 -k RTR
+ -t 15.492682035 -s 1 -d 7 -p cbr -e 532 -c 2 -a 0 -i 21 -k RTR 
- -t 15.492682035 -s 1 -d 7 -p cbr -e 532 -c 2 -a 0 -i 21 -k RTR
h -t 15.492682035 -s 1 -d 7 -p cbr -e 532 -c 2 -a 0 -i 21 -k RTR
+ -t 15.498476035 -s 7 -d 13 -p cbr -e 532 -c 2 -a 0 -i 21 -k RTR 
- -t 15.498476035 -s 7 -d 13 -p cbr -e 532 -c 2 -a 0 -i 21 -k RTR
h -t 15.498476035 -s 7 -d 13 -p cbr -e 532 -c 2 -a 0 -i 21 -k RTR
r -t 15.504350035 -s 13 -d 13 -p cbr -e 512 -c 2 -a 0 -i 21 -k AGT
+ -t 15.542756768 -s 1 -d -1 -p cbr -e 512 -c 2 -a 0 -i 22 -k AGT 
- -t 15.542756768 -s 1 -d -1 -p cbr -e 512 -c 2 -a 0 -i 22 -k AGT
h -t 15.542756768 -s 1 -d -1 -p cbr -e 512 -c 2 -a 0 -i 22 -k AGT
+ -t 15.542756768 -s 1 -d 7 -p cbr -e 532 -c 2 -a 0 -i 22 -k RTR 
- -t 15.542756768 -s 1 -d 7 -p cbr -e 532 -c 2 -a 0 -i 22 -k RTR
h -t 15.542756768 -s 1 -d 7 -p cbr -e 532 -c 2 -a 0 -i 22 -k RTR
+ -t 15.548786768 -s 7 -d 13 -p cbr -e 532 -c 2 -a 0 -i 22 -k RTR 
- -t 15.548786768 -s 7 -d 13 -p cbr -e 532 -c 2 -a 0 -i 22 -k RTR
h -t 15.548786768 -s 7 -d 13 -p cbr -e 532 -c 2 -a 0 -i 22 -k RTR
r -t 15.554820768 -s 13 -d 13 -p cbr -e 512 -c 2 -a 0 -i 22 -k AGT
+ -t 15.558018946 -s 13 -d -1 -p cbr -e 512 -c 2 -a 0 -i 23 -k AGT 
- -t 15.558018946 -s 13 -d -1 -p cbr -e 512 -c 2 -a 0 -i 23 -k AGT
h -t 15.558018946 -s 13 -d -1 -p cbr -e 512 -c 2 -a 0 -i 23 -k AGT
+ -t 15.558018946 -s 13 -d 7 -p cbr -e 532 -c 2 -a 0 -i 23 -k RTR 
- -t 15.558018946 -s 13 -d 7 -p cbr -e 532 -c 2 -a 0 -i 23 -k RTR
h -t 15.558018946 -s 13 -d 7 -p cbr -e 532 -c 2 -a 0 -i 23 -k RTR
r -t 15.563588946 -s 7 -d 7 -p cbr -e 512 -c 2 -a 0 -i 23 -k AGT
+ -t 15.592585271 -s 0 -d -1 -p cbr -e 512 -c 2 -a 0 -i 24 -k AGT 
- -t 15.592585271 -s 0 -d -1 -p cbr -e 512 -c 2 -a 0 -i 24 -k AGT
h -t 15.592585271 -s 0 -d -1 -p cbr -e 512 -c 2 -a 0 -i 24 -k AGT
+ -t 15.592585271 -s 0 -d 1 -p cbr -e 532 -c 2 -a 0 -i 24 -k RTR 
- -t 15.592585271 -s 0 -d 1 -p cbr -e 532 -c 2 -a 0 -i 24 -k RTR
h -t 15.592585271 -s 0 -d 1 -p cbr -e 532 -c 2 -a 0 -i 24 -k RTR
+ -t 15.598055271 -s 1 -d 7 -p cbr -e 532 -c 2 -a 0 -i 24 -k RTR 
- -t 15.598055271 -s 1 -d 7 -p cbr -e 532 -c 2 -a 0 -i 24 -k RTR
h -t 15.598055271 -s 1 -d 7 -p cbr -e 532 -c 2 -a 0 -i 24 -k RTR
+ -t 15.603829271 -s 7 -d 13 -p cbr -e 532 -c 2 -a 0 -i 24 -k RTR 
- -t 15.603829271 -s 7 -d 13 -p cbr -e 532 -c 2 -a 0 -i 24 -k RTR
h -t 15.603829271 -s 7 -d 13 -p cbr -e 532 -c 2 -a 0 -i 24 -k RTR
r -t 15.609663271 -s 13 -d 13 -p cbr -e 512 -c 2 -a 0 -i 24 -k AGT
+ -t 15.676837724 -s 1 -d -1 -p cbr -e 512 -c 2 -a 0 -i 25 -k AGT 
- -t 15.676837724 -s 1 -d -1 -p cbr -e 512 -c 2 -a 0 -i 25 -k AGT
h -t 15.676837724 -s 1 -d -1 -p cbr -e 512 -c 2 -a 0 -i 25 -k AGT
+ -t 15.676837724 -s 1 -d 7 -p cbr -e 532 -c 2 -a 0 -i 25 -k RTR 
- -t 15.676837724 -s 1 -d 7 -p cbr -e 532 -c 2 -a 0 -i 25 -k RTR
h -t 15.676837724 -s 1 -d 7 -p cbr -e 532 -c 2 -a 0 -i 25 -k RTR
+ -t 15.682567724 -s 7 -d 13 -p cbr -e 532 -c 2 -a 0 -i 25 -k RTR 
- -t 15.682567724 -s 7 -d 13 -p cbr -e 532 -c 2 -a 0 -i 25 -k RTR
h -t 15.682567724 -s 7 -d 13 -p cbr -e 532 -c 2 -a 0 -i 25 -k RTR
r -t 15.688781724 -s 13 -d 13 -p cbr -e 512 -c 2 -a 0 -i 25 -k AGT
+ -t 15.701511527 -s 13 -d -1 -p cbr -e 512 -c 2 -a 0 -i 26 -k AGT 
- -t 15.701511527 -s 13 -d -1 -p cbr -e 512 -c 2 -a 0 -i 26 -k AGT
h -t 15.701511527 -s 13 -d -1 -p cbr -e 512 -c 2 -a 0 -i 26 -k AGT
+ -t 15.701511527 -s 13 -d 7 -p cbr -e 532 -c 2 -a 0 -i 26 -k RTR 
- -t 15.701511527 -s 13 -d 7 -p cbr -e 532 -c 2 -a 0 -i 26 -k RTR
h -t 15.701511527 -s 13 -d 7 -p cbr -e 532 -c 2 -a 0 -i 26 -k RTR
+ -t 15.705684281 -s 0 -d -1 -p cbr -e 512 -c 2 -a 0 -i 27 -k AGT 
- -t 15.705684281 -s 0 -d -1 -p cbr -e 512 -c 2 -a 0 -i 27 -k AGT
h -t 15.705684281 -s 0 -d -1 -p cbr -e 512 -c 2 -a 0 -i 27 -k AGT
+ -t 15.705684281 -s 0 -d 1 -p cbr -e 532 -c 2 -a 0 -i 27 -k RTR 
- -t 15.705684281 -s 0 -d 1 -p cbr -e 532 -c 2 -a 0 -i 27 -k RTR
h -t 15.705684281 -s 0 -d 1 -p cbr -e 532 -c 2 -a 0 -i 27 -k RTR
r -t 15.707161527 -s 7 -d 7 -p cbr -e 512 -c 2 -a 0 -i 26 -k AGT
+ -t 15.713720470 -s 1 -d 7 -p cbr -e 532 -c 2 -a 0 -i 27 -k RTR 
- -t 15.713720470 -s 1 -d 7 -p cbr -e 532 -c 2 -a 0 -i 27 -k RTR
h -t 15.713720470 -s 1 -d 7 -p cbr -e 532 -c 2 -a 0 -i 27 -k RTR
+ -t 15.719494470 -s 7 -d 13 -p cbr -e 532 -c 2 -a 0 -i 27 -k RTR 
- -t 15.719494470 -s 7 -d 13 -p cbr -e 532 -c 2 -a 0 -i 27 -k RTR
h -t 15.719494470 -s 7 -d 13 -p cbr -e 532 -c 2 -a 0 -i 27 -k RTR
r -t 15.725468470 -s 13 -d 13 -p cbr -e 512 -c 2 -a 0 -i 27 -k AGT
+ -t 15.793760917 -s 1 -d -1 -p cbr -e 512 -c 2 -a 0 -i 28 -k AGT 
- -t 15.793760917 -s 1 -d -1 -p cbr -e 512 -c 2 -a 0 -i 28 -k AGT
h -t 15.793760917 -s 1 -d -1 -p cbr -e 512 -c 2 -a 0 -i 28 -k AGT
+ -t 15.793760917 -s 1 -d 7 -p cbr -e 532 -c 2 -a 0 -i 28 -k RTR 
- -t 15.793760917 -s 1 -d 7 -p cbr -e 532 -c 2 -a 0 -i 28 -k RTR
h -t 15.793760917 -s 1 -d 7 -p cbr -e 532 -c 2 -a 0 -i 28 -k RTR
+ -t 15.799550917 -s 7 -d 13 -p cbr -e 532 -c 2 -a 0 -i 28 -k RTR 
- -t 15.799550917 -s 7 -d 13 -p cbr -e 532 -c 2 -a 0 -i 28 -k RTR
h -t 15.799550917 -s 7 -d 13 -p cbr -e 532 -c 2 -a 0 -i 28 -k RTR
r -t 15.805584917 -s 13 -d 13 -p cbr -e 512 -c 2 -a 0 -i 28 -k AGT
+ -t 15.814395609 -s 13 -d -1 -p cbr -e 512 -c 2 -a 0 -i 29 -k AGT 
- -t 15.814395609 -s 13 -d -1 -p cbr -e 512 -c 2 -a 0 -i 29 -k AGT
h -t 15.814395609 -s 13 -d -1 -p cbr -e 512 -c 2 -a 0 -i 29 -k AGT
+ -t 15.814395609 -s 13 -d 7 -p cbr -e 532 -c 2 -a 0 -i 29 -k RTR 
- -t 15.814395609 -s 13 -d 7 -p cbr -e 532 -c 2 -a 0 -i 29 -k RTR
h -t 15.814395609 -s 13 -d 7 -p cbr -e 532 -c 2 -a 0 -i 29 -k RTR
r -t 15.820025609 -s 7 -d 7 -p cbr -e 512 -c 2 -a 0 -i 29 -k AGT
+ -t 15.839963859 -s 0 -d -1 -p cbr -e 512 -c 2 -a 0 -i 30 -k AGT 
- -t 15.839963859 -s 0 -d -1 -p cbr -e 512 -c 2 -a 0 -i 30 -k AGT
h -t 15.839963859 -s 0 -d -1 -p cbr -e 512 -c 2 -a 0 -i 30 -k AGT
+ -t 15.839963859 -s 0 -d 1 -p cbr -e 532 -c 2 -a 0 -i 30 -k RTR 
- -t 15.839963859 -s 0 -d 1 -p cbr -e 532 -c 2 -a 0 -i 30 -k RTR
h -t 15.839963859 -s 0 -d 1 -p cbr -e 532 -c 2 -a 0 -i 30 -k RTR
+ -t 15.845793859 -s 1 -d 7 -p cbr -e 532 -c 2 -a 0 -i 30 -k RTR 
- -t 15.845793859 -s 1 -d 7 -p cbr -e 532 -c 2 -a 0 -i 30 -k RTR
h -t 15.845793859 -s 1 -d 7 -p cbr -e 532 -c 2 -a 0 -i 30 -k RTR
+ -t 15.851667859 -s 7 -d 13 -p cbr -e 532 -c 2 -a 0 -i 30 -k RTR 
- -t 15.851667859 -s 7 -d 13 -p cbr -e 532 -c 2 -a 0 -i 30 -k RTR
h -t 15.851667859 -s 7 -d 13 -p cbr -e 532 -c 2 -a 0 -i 30 -k RTR
r -t 15.857521859 -s 13 -d 13 -p cbr -e 512 -c 2 -a 0 -i 30 -k AGT
+ -t 15.921913187 -s 1 -d -1 -p cbr -e 512 -c 2 -a 0 -i 31 -k AGT 
- -t 15.921913187 -s 1 -d -1 -p cbr -e 512 -c 2 -a 0 -i 31 -k AGT
h -t 15.921913187 -s 1 -d -1 -p cbr -e 512 -c 2 -a 0 -i 31 -k AGT
+ -t 15.921913187 -s 1 -d 7 -p cbr -e 532 -c 2 -a 0 -i 31 -k RTR 
- -t 15.921913187 -s 1 -d 7 -p cbr -e 532 -c 2 -a 0 -i 31 -k RTR
h -t 15.921913187 -s 1 -d 7 -p cbr -e 532 -c 2 -a 0 -i 31 -k RTR
+ -t 15.927783187 -s 7 -d 13 -p cbr -e 532 -c 2 -a 0 -i 31 -k RTR 
- -t 15.927783187 -s 7 -d 13 -p cbr -e 532 -c 2 -a 0 -i 31 -k RTR
h -t 15.927783187 -s 7 -d 13 -p cbr -e 532 -c 2 -a 0 -i 31 -k RTR
+ -t 15.930946424 -s 0 -d -1 -p cbr -e 512 -c 2 -a 0 -i 32 -k AGT 
- -t 15.930946424 -s 0 -d -1 -p cbr -e 512 -c 2 -a 0 -i 32 -k AGT
h -t 15.930946424 -s 0 -d -1 -p cbr -e 512 -c 2 -a 0 -i 32 -k AGT
+ -t 15.930946424 -s 0 -d 1 -p cbr -e 532 -c 2 -a 0 -i 32 -k RTR 
- -t 15.930946424 -s 0 -d 1 -p cbr -e 532 -c 2 -a 0 -i 32 -k RTR
h -t 15.930946424 -s 0 -d 1 -p cbr -e 532 -c 2 -a 0 -i 32 -k RTR
r -t 15.933757187 -s 13 -d 13 -p cbr -e 512 -c 2 -a 0 -i 31 -k AGT
+ -t 15.940156677 -s 1 -d 7 -p cbr -e 532 -c 2 -a 0 -i 32 -k RTR 
- -t 15.940156677 -s 1 -d 7 -p cbr -e 532 -c 2 -a 0 -i 32 -k RTR
h -t 15.940156677 -s 1 -d 7 -p cbr -e 532 -c 2 -a 0 -i 32 -k RTR
+ -t 15.946430677 -s 7 -d 13 -p cbr -e 532 -c 2 -a 0 -i 32 -k RTR 
- -t 15.946430677 -s 7 -d 13 -p cbr -e 532 -c 2 -a 0 -i 32 -k RTR
h -t 15.946430677 -s 7 -d 13 -p cbr -e 532 -c 2 -a 0 -i 32 -k RTR
r -t 15.952724677 -s 13 -d 13 -p cbr -e 512 -c 2 -a 0 -i 32 -k AGT
+ -t 15.952735713 -s 13 -d -1 -p cbr -e 512 -c 2 -a 0 -i 33 -k AGT 
- -t 15.952735713 -s 13 -d -1 -p cbr -e 512 -c 2 -a 0 -i 33 -k AGT
h -t 15.952735713 -s 13 -d -1 -p cbr -e 512 -c 2 -a 0 -i 33 -k AGT
+ -t 15.952735713 -s 13 -d 7 -p cbr -e 532 -c 2 -a 0 -i 33 -k RTR 
- -t 15.952735713 -s 13 -d 7 -p cbr -e 532 -c 2 -a 0 -i 33 -k RTR
h -t 15.952735713 -s 13 -d 7 -p cbr -e 532 -c 2 -a 0 -i 33 -k RTR
r -t 15.958738677 -s 7 -d 7 -p cbr -e 512 -c 2 -a 0 -i 33 -k AGT
+ -t 15.986677095 -s 1 -d -1 -p cbr -e 512 -c 2 -a 0 -i 34 -k AGT 
- -t 15.986677095 -s 1 -d -1 -p cbr -e 512 -c 2 -a 0 -i 34 -k AGT
h -t 15.986677095 -s 1 -d -1 -p cbr -e 512 -c 2 -a 0 -i 34 -k AGT
+ -t 15.986677095 -s 1 -d 7 -p cbr -e 532 -c 2 -a 0 -i 34 -k RTR 
- -t 15.986677095 -s 1 -d 7 -p cbr -e 532 -c 2 -a 0 -i 34 -k RTR
h -t 15.986677095 -s 1 -d 7 -p cbr -e 532 -c 2 -a 0 -i 34 -k RTR
+ -t 15.992467095 -s 7 -d 13 -p cbr -e 532 -c 2 -a 0 -i 34 -k RTR 
- -t 15.992467095 -s 7 -d 13 -p cbr -e 532 -c 2 -a 0 -i 34 -k RTR
h -t 15.992467095 -s 7 -d 13 -p cbr -e 532 -c 2 -a 0 -i 34 -k RTR
r -t 15.998721095 -s 13 -d 13 -p cbr -e 512 -c 2 -a 0 -i 34 -k AGT
+ -t 16.027565795 -s 13 -d -1 -p cbr -e 512 -c 2 -a 0 -i 35 -k AGT 
- -t 16.027565795 -s 13 -d -1 -p cbr -e 512 -c 2 -a 0 -i 35 -k AGT
h -t 16.027565795 -s 13 -d -1 -p cbr -e 512 -c 2 -a 0 -i 35 -k AGT
+ -t 16.027565795 -s 13 -d 7 -p cbr -e 532 -c 2 -a 0 -i 35 -k RTR 
- -t 16.027565795 -s 13 -d 7 -p cbr -e 532 -c 2 -a 0 -i 35 -k RTR
h -t 16.027565795 -s 13 -d 7 -p cbr -e 532 -c 2 -a 0 -i 35 -k RTR
r -t 16.033455795 -s 7 -d 7 -p cbr -e 512 -c 2 -a 0 -i 35 -k AGT
+ -t 16.038382467 -s 0 -d -1 -p cbr -e 512 -c 2 -a 0 -i 36 -k AGT 
- -t 16.038382467 -s 0 -d -1 -p cbr -e 512 -c 2 -a 0 -i 36 -k AGT
h -t 16.038382467 -s 0 -d -1 -p cbr -e 512 -c 2 -a 0 -i 36 -k AGT
+ -t 16.038382467 -s 0 -d 1 -p cbr -e 532 -c 2 -a 0 -i 36 -k RTR 
- -t 16.038382467 -s 0 -d 1 -p cbr -e 532 -c 2 -a 0 -i 36 -k RTR
h -t 16.038382467 -s 0 -d 1 -p cbr -e 532 -c 2 -a 0 -i 36 -k RTR
+ -t 16.044072467 -s 1 -d 7 -p cbr -e 532 -c 2 -a 0 -i 36 -k RTR 
- -t 16.044072467 -s 1 -d 7 -p cbr -e 532 -c 2 -a 0 -i 36 -k RTR
h -t 16.044072467 -s 1 -d 7 -p cbr -e 532 -c 2 -a 0 -i 36 -k RTR
+ -t 16.050106467 -s 7 -d 13 -p cbr -e 532 -c 2 -a 0 -i 36 -k RTR 
- -t 16.050106467 -s 7 -d 13 -p cbr -e 532 -c 2 -a 0 -i 36 -k RTR
h -t 16.050106467 -s 7 -d 13 -p cbr -e 532 -c 2 -a 0 -i 36 -k RTR
r -t 16.056180467 -s 13 -d 13 -p cbr -e 512 -c 2 -a 0 -i 36 -k AGT
+ -t 16.069472829 -s 1 -d -1 -p cbr -e 512 -c 2 -a 0 -i 37 -k AGT 
- -t 16.069472829 -s 1 -d -1 -p cbr -e 512 -c 2 -a 0 -i 37 -k AGT
h -t 16.069472829 -s 1 -d -1 -p cbr -e 512 -c 2 -a 0 -i 37 -k AGT
+ -t 16.069472829 -s 1 -d 7 -p cbr -e 532 -c 2 -a 0 -i 37 -k RTR 
- -t 16.069472829 -s 1 -d 7 -p cbr -e 532 -c 2 -a 0 -i 37 -k RTR
h -t 16.069472829 -s 1 -d 7 -p cbr -e 532 -c 2 -a 0 -i 37 -k RTR
+ -t 16.075462829 -s 7 -d 13 -p cbr -e 532 -c 2 -a 0 -i 37 -k RTR 
- -t 16.075462829 -s 7 -d 13 -p cbr -e 532 -c 2 -a 0 -i 37 -k RTR
h -t 16.075462829 -s 7 -d 13 -p cbr -e 532 -c 2 -a 0 -i 37 -k RTR
r -t 16.081436829 -s 13 -d 13 -p cbr -e 512 -c 2 -a 0 -i 37 -k AGT
+ -t 16.116715603 -s 0 -d -1 -p cbr -e 512 -c 2 -a 0 -i 38 -k AGT 
- -t 16.116715603 -s 0 -d -1 -p cbr -e 512 -c 2 -a 0 -i 38 -k AGT
h -t 16.116715603 -s 0 -d -1 -p cbr -e 512 -c 2 -a 0 -i 38 -k AGT
+ -t 16.116715603 -s 0 -d 1 -p cbr -e 532 -c 2 -a 0 -i 38 -k RTR 
- -t 16.116715603 -s 0 -d 1 -p cbr -e 532 -c 2 -a 0 -i 38 -k RTR
h -t 16.116715603 -s 0 -d 1 -p cbr -e 532 -c 2 -a 0 -i 38 -k RTR
+ -t 16.122605603 -s 1 -d 7 -p cbr -e 532 -c 2 -a 0 -i 38 -k RTR 
- -t 16.122605603 -s 1 -d 7 -p cbr -e 532 -c 2 -a 0 -i 38 -k RTR
h -t 16.122605603 -s 1 -d 7 -p cbr -e 532 -c 2 -a 0 -i 38 -k RTR
+ -t 16.128859603 -s 7 -d 13 -p cbr -e 532 -c 2 -a 0 -i 38 -k RTR 
- -t 16.128859603 -s 7 -d 13 -p cbr -e 532 -c 2 -a 0 -i 38 -k RTR
h -t 16.128859603 -s 7 -d 13 -p cbr -e 532 -c 2 -a 0 -i 38 -k RTR
r -t 16.135133603 -s 13 -d 13 -p cbr -e 512 -c 2 -a 0 -i 38 -k AGT
+ -t 16.152740321 -s 13 -d -1 -p cbr -e 512 -c 2 -a 0 -i 39 -k AGT 
- -t 16.152740321 -s 13 -d -1 -p cbr -e 512 -c 2 -a 0 -i 39 -k AGT
h -t 16.152740321 -s 13 -d -1 -p cbr -e 512 -c 2 -a 0 -i 39 -k AGT
+ -t 16.152740321 -s 13 -d 7 -p cbr -e 532 -c 2 -a 0 -i 39 -k RTR 
- -t 16.152740321 -s 13 -d 7 -p cbr -e 532 -c 2 -a 0 -i 39 -k RTR
h -t 16.152740321 -s 13 -d 7 -p cbr -e 532 -c 2 -a 0 -i 39 -k RTR
r -t 16.158530321 -s 7 -d 7 -p cbr -e 512 -c 2 -a 0 -i 39 -k AGT
+ -t 16.169977879 -s 1 -d -1 -p cbr -e 512 -c 2 -a 0 -i 40 -k AGT 
- -t 16.169977879 -s 1 -d -1 -p cbr -e 512 -c 2 -a 0 -i 40 -k AGT
h -t 16.169977879 -s 1 -d -1 -p cbr -e 512 -c 2 -a 0 -i 40 -k AGT
+ -t 16.169977879 -s 1 -d 7 -p cbr -e 532 -c 2 -a 0 -i 40 -k RTR 
- -t 16.169977879 -s 1 -d 7 -p cbr -e 532 -c 2 -a 0 -i 40 -k RTR
h -t 16.169977879 -s 1 -d 7 -p cbr -e 532 -c 2 -a 0 -i 40 -k RTR
+ -t 16.176027879 -s 7 -d 13 -p cbr -e 532 -c 2 -a 0 -i 40 -k RTR 
- -t 16.176027879 -s 7 -d 13 -p cbr -e 532 -c 2 -a 0 -i 40 -k RTR
h -t 16.176027879 -s 7 -d 13 -p cbr -e 532 -c 2 -a 0 -i 40 -k RTR
r -t 16.182101879 -s 13 -d 13 -p cbr -e 512 -c 2 -a 0 -i 40 -k AGT
+ -t 16.195144487 -s 0 -d -1 -p cbr -e 512 -c 2 -a 0 -i 41 -k AGT 
- -t 16.195144487 -s 0 -d -1 -p cbr -e 512 -c 2 -a 0 -i 41 -k AGT
h -t 16.195144487 -s 0 -d -1 -p cbr -e 512 -c 2 -a 0 -i 41 -k AGT
+ -t 16.195144487 -s 0 -d 1 -p cbr -e 532 -c 2 -a 0 -i 41 -k RTR 
- -t 16.195144487 -s 0 -d 1 -p cbr -e 532 -c 2 -a 0 -i 41 -k RTR
h -t 16.195144487 -s 0 -d 1 -p cbr -e 532 -c 2 -a 0 -i 41 -k RTR
+ -t 16.200754487 -s 1 -d 7 -p cbr -e 532 -c 2 -a 0 -i 41 -k RTR 
- -t 16.200754487 -s 1 -d 7 -p cbr -e 532 -c 2 -a 0 -i 41 -k RTR
h -t 16.200754487 -s 1 -d 7 -p cbr -e 532 -c 2 -a 0 -i 41 -k RTR
+ -t 16.206868487 -s 7 -d 13 -p cbr -e 532 -c 2 -a 0 -i 41 -k RTR 
- -t 16.206868487 -s 7 -d 13 -p cbr -e 532 -c 2 -a 0 -i 41 -k RTR
h -t 16.206868487 -s 7 -d 13 -p cbr -e 532 -c 2 -a 0 -i 41 -k RTR
r -t 16.212762487 -s 13 -d 13 -p cbr -e 512 -c 2 -a 0 -i 41 -k AGT
+ -t 16.278663360 -s 13 -d -1 -p cbr -e 512 -c 2 -a 0 -i 42 -k AGT 
- -t 16.278663360 -s 13 -d -1 -p cbr -e 512 -c 2 -a 0 -i 42 -k AGT
h -t 16.278663360 -s 13 -d -1 -p cbr -e 512 -c 2 -a 0 -i 42 -k AGT
+ -t 16.278663360 -s 13 -d 7 -p cbr -e 532 -c 2 -a 0 -i 42 -k RTR 
- -t 16.278663360 -s 13 -d 7 -p cbr -e 532 -c 2 -a 0 -i 42 -k RTR
h -t 16.278663360 -s 13 -d 7 -p cbr -e 532 -c 2 -a 0 -i 42 -k RTR
r -t 16.284473360 -s 7 -d 7 -p cbr -e 512 -c 2 -a 0 -i 42 -k AGT
+ -t 16.304978441 -s 1 -d -1 -p cbr -e 512 -c 2 -a 0 -i 43 -k AGT 
- -t 16.304978441 -s 1 -d -1 -p cbr -e 512 -c 2 -a 0 -i 43 -k AGT
h -t 16.304978441 -s 1 -d -1 -p cbr -e 512 -c 2 -a 0 -i 43 -k AGT
+ -t 16.304978441 -s 1 -d 7 -p cbr -e 532 -c 2 -a 0 -i 43 -k RTR 
- -t 16.304978441 -s 1 -d 7 -p cbr -e 532 -c 2 -a 0 -i 43 -k RTR
h -t 16.304978441 -s 1 -d 7 -p cbr -e 532 -c 2 -a 0 -i 43 -k RTR
+ -t 16.310548441 -s 7 -d 13 -p cbr -e 532 -c 2 -a 0 -i 43 -k RTR 
- -t 16.310548441 -s 7 -d 13 -p cbr -e 532 -c 2 -a 0 -i 43 -k RTR
h -t 16.310548441 -s 7 -d 13 -p cbr -e 532 -c 2 -a 0 -i 43 -k RTR
r -t 16.316782441 -s 13 -d 13 -p cbr -e 512 -c 2 -a 0 -i 43 -k AGT
+ -t 16.334518995 -s 0 -d -1 -p cbr -e 512 -c 2 -a 0 -i 44 -k AGT 
- -t 16.334518995 -s 0 -d -1 -p cbr -e 512 -c 2 -a 0 -i 44 -k AGT
h -t 16.334518995 -s 0 -d -1 -p cbr -e 512 -c 2 -a 0 -i 44 -k AGT
+ -t 16.334518995 -s 0 -d 1 -p cbr -e 532 -c 2 -a 0 -i 44 -k RTR 
- -t 16.334518995 -s 0 -d 1 -p cbr -e 532 -c 2 -a 0 -i 44 -k RTR
h -t 16.334518995 -s 0 -d 1 -p cbr -e 532 -c 2 -a 0 -i 44 -k RTR
+ -t 16.340148995 -s 1 -d 7 -p cbr -e 532 -c 2 -a 0 -i 44 -k RTR 
- -t 16.340148995 -s 1 -d 7 -p cbr -e 532 -c 2 -a 0 -i 44 -k RTR
h -t 16.340148995 -s 1 -d 7 -p cbr -e 532 -c 2 -a 0 -i 44 -k RTR
+ -t 16.346242995 -s 7 -d 13 -p cbr -e 532 -c 2 -a 0 -i 44 -k RTR 
- -t 16.346242995 -s 7 -d 13 -p cbr -e 532 -c 2 -a 0 -i 44 -k RTR
h -t 16.346242995 -s 7 -d 13 -p cbr -e 532 -c 2 -a 0 -i 44 -k RTR
r -t 16.352196995 -s 13 -d 13 -p cbr -e 512 -c 2 -a 0 -i 44 -k AGT
+ -t 16.360764132 -s 13 -d -1 -p cbr -e 512 -c 2 -a 0 -i 45 -k AGT 
- -t 16.360764132 -s 13 -d -1 -p cbr -e 512 -c 2 -a 0 -i 45 -k AGT
h -t 16.360764132 -s 13 -d -1 -p cbr -e 512 -c 2 -a 0 -i 45 -k AGT
+ -t 16.360764132 -s 13 -d 7 -p cbr -e 532 -c 2 -a 0 -i 45 -k RTR 
- -t 16.360764132 -s 13 -d 7 -p cbr -e 532 -c 2 -a 0 -i 45 -k RTR
h -t 16.360764132 -s 13 -d 7 -p cbr -e 532 -c 2 -a 0 -i 45 -k RTR
r -t 16.366494132 -s 7 -d 7 -p cbr -e 512 -c 2 -a 0 -i 45 -k AGT
+ -t 16.373265028 -s 1 -d -1 -p cbr -e 512 -c 2 -a 0 -i 46 -k AGT 
- -t 16.373265028 -s 1 -d -1 -p cbr -e 512 -c 2 -a 0 -i 46 -k AGT
h -t 16.373265028 -s 1 -d -1 -p cbr -e 512 -c 2 -a 0 -i 46 -k AGT
+ -t 16.373265028 -s 1 -d 7 -p cbr -e 532 -c 2 -a 0 -i 46 -k RTR 
- -t 16.373265028 -s 1 -d 7 -p cbr -e 532 -c 2 -a 0 -i 46 -k RTR
h -t 16.373265028 -s 1 -d 7 -p cbr -e 532 -c 2 -a 0 -i 46 -k RTR
+ -t 16.379035028 -s 7 -d 13 -p cbr -e 532 -c 2 -a 0 -i 46 -k RTR 
- -t 16.379035028 -s 7 -d 13 -p cbr -e 532 -c 2 -a 0 -i 46 -k RTR
h -t 16.379035028 -s 7 -d 13 -p cbr -e 532 -c 2 -a 0 -i 46 -k RTR
r -t 16.385329028 -s 13 -d 13 -p cbr -e 512 -c 2 -a 0 -i 46 -k AGT
+ -t 16.444003554 -s 1 -d -1 -p cbr -e 512 -c 2 -a 0 -i 47 -k AGT 
- -t 16.444003554 -s 1 -d -1 -p cbr -e 512 -c 2 -a 0 -i 47 -k AGT
h -t 16.444003554 -s 1 -d -1 -p cbr -e 512 -c 2 -a 0 -i 47 -k AGT
+ -t 16.444003554 -s 1 -d 7 -p cbr -e 532 -c 2 -a 0 -i 47 -k RTR 
- -t 16.444003554 -s 1 -d 7 -p cbr -e 532 -c 2 -a 0 -i 47 -k RTR
h -t 16.444003554 -s 1 -d 7 -p cbr -e 532 -c 2 -a 0 -i 47 -k RTR
+ -t 16.450033554 -s 7 -d 13 -p cbr -e 532 -c 2 -a 0 -i 47 -k RTR 
- -t 16.450033554 -s 7 -d 13 -p cbr -e 532 -c 2 -a 0 -i 47 -k RTR
h -t 16.450033554 -s 7 -d 13 -p cbr -e 532 -c 2 -a 0 -i 47 -k RTR
r -t 16.456347554 -s 13 -d 13 -p cbr -e 512 -c 2 -a 0 -i 47 -k AGT
+ -t 16.464078012 -s 13 -d -1 -p cbr -e 512 -c 2 -a 0 -i 48 -k AGT 
- -t 16.464078012 -s 13 -d -1 -p cbr -e 512 -c 2 -a 0 -i 48 -k AGT
h -t 16.464078012 -s 13 -d -1 -p cbr -e 512 -c 2 -a 0 -i 48 -k AGT
+ -t 16.464078012 -s 13 -d 7 -p cbr -e 532 -c 2 -a 0 -i 48 -k RTR 
- -t 16.464078012 -s 13 -d 7 -p cbr -e 532 -c 2 -a 0 -i 48 -k RTR
h -t 16.464078012 -s 13 -d 7 -p cbr -e 532 -c 2 -a 0 -i 48 -k RTR
r -t 16.470088012 -s 7 -d 7 -p cbr -e 512 -c 2 -a 0 -i 48 -k AGT
+ -t 16.477193331 -s 0 -d -1 -p cbr -e 512 -c 2 -a 0 -i 49 -k AGT 