Sconfig 0.00000 tap: on snoop: rts? on errs? on
Sconfig 0.00000 salvage: on !bd replies? on
Sconfig 0.00000 grat error: on grat reply: on
Sconfig 0.00000 $reply for props: on ring 0 search: on
Sconfig 0.00000 using MOBICACHE
M 13.00000 5 (500.00, 100.00, 0.00), (132.00, 412.00), 3.00
s 15.000000000 _0_ AGT  --- 0 cbr 512 [0 0 0 0] ------- [0:0 16:0 32 0] [0] 0 0
r 15.000000000 _0_ RTR  --- 0 cbr 512 [0 0 0 0] ------- [0:0 16:0 32 0] [0] 0 0
s 15.007183001 _0_ RTR  --- 1 DSR 32 [0 0 0 0] ------- [0:255 16:255 32 0] 1 [1 1] [0 1 0 0->0] [0 0 0 0->0]
r 15.008015335 _3_ RTR  --- 1 DSR 32 [0 ffffffff 0 800] ------- [0:255 16:255 32 0] 1 [1 1] [0 1 0 0->0] [0 0 0 0->0]
r 15.008015668 _6_ RTR  --- 1 DSR 32 [0 ffffffff 0 800] ------- [0:255 16:255 32 0] 1 [1 1] [0 1 0 0->0] [0 0 0 0->0]
r 15.008015668 _1_ RTR  --- 1 DSR 32 [0 ffffffff 0 800] ------- [0:255 16:255 32 0] 1 [1 1] [0 1 0 0->0] [0 0 0 0->0]
r 15.008015747 _4_ RTR  --- 1 DSR 32 [0 ffffffff 0 800] ------- [0:255 16:255 32 0] 1 [1 1] [0 1 0 0->0] [0 0 0 0->0]
s 15.041606981 _0_ RTR  --- 2 DSR 32 [0 0 0 0] ------- [0:255 16:255 32 0] 1 [1 2] [0 2 0 0->16] [0 0 0 0->0]
r 15.042399314 _3_ RTR  --- 2 DSR 32 [0 ffffffff 0 800] ------- [0:255 16:255 32 0] 1 [1 2] [0 2 0 0->16] [0 0 0 0->0]
r 15.042399647 _6_ RTR  --- 2 DSR 32 [0 ffffffff 0 800] ------- [0:255 16:255 32 0] 1 [1 2] [0 2 0 0->16] [0 0 0 0->0]
r 15.042399647 _1_ RTR  --- 2 DSR 32 [0 ffffffff 0 800] ------- [0:255 16:255 32 0] 1 [1 2] [0 2 0 0->16] [0 0 0 0->0]
r 15.042399726 _4_ RTR  --- 2 DSR 32 [0 ffffffff 0 800] ------- [0:255 16:255 32 0] 1 [1 2] [0 2 0 0->16] [0 0 0 0->0]
f 15.048559455 _1_ RTR  --- 2 DSR 48 [0 ffffffff 0 800] ------- [0:255 16:255 32 0] 2 [1 2] [0 2 0 0->16] [0 0 0 0->0]
f 15.048633514 _4_ RTR  --- 2 DSR 48 [0 ffffffff 0 800] ------- [0:255 16:255 32 0] 2 [1 2] [0 2 0 0->16] [0 0 0 0->0]
r 15.049659788 _4_ RTR  --- 2 DSR 48 [0 ffffffff 1 800] ------- [0:255 16:255 32 0] 2 [1 2] [0 2 0 0->16] [0 0 0 0->0]
r 15.049660122 _0_ RTR  --- 2 DSR 48 [0 ffffffff 1 800] ------- [0:255 16:255 32 0] 2 [1 2] [0 2 0 0->16] [0 0 0 0->0]
r 15.049660122 _7_ RTR  --- 2 DSR 48 [0 ffffffff 1 800] ------- [0:255 16:255 32 0] 2 [1 2] [0 2 0 0->16] [0 0 0 0->0]
r 15.049660122 _2_ RTR  --- 2 DSR 48 [0 ffffffff 1 800] ------- [0:255 16:255 32 0] 2 [1 2] [0 2 0 0->16] [0 0 0 0->0]
r 15.049660193 _5_ RTR  --- 2 DSR 48 [0 ffffffff 1 800] ------- [0:255 16:255 32 0] 2 [1 2] [0 2 0 0->16] [0 0 0 0->0]
r 15.049660200 _3_ RTR  --- 2 DSR 48 [0 ffffffff 1 800] ------- [0:255 16:255 32 0] 2 [1 2] [0 2 0 0->16] [0 0 0 0->0]
r 15.050670122 _1_ RTR  --- 2 DSR 48 [0 ffffffff 4 800] ------- [0:255 16:255 32 0] 2 [1 2] [0 2 0 0->16] [0 0 0 0->0]
r 15.050670122 _7_ RTR  --- 2 DSR 48 [0 ffffffff 4 800] ------- [0:255 16:255 32 0] 2 [1 2] [0 2 0 0->16] [0 0 0 0->0]
r 15.050670439 _5_ RTR  --- 2 DSR 48 [0 ffffffff 4 800] ------- [0:255 16:255 32 0] 2 [1 2] [0 2 0 0->16] [0 0 0 0->0]
r 15.050670455 _3_ RTR  --- 2 DSR 48 [0 ffffffff 4 800] ------- [0:255 16:255 32 0] 2 [1 2] [0 2 0 0->16] [0 0 0 0->0]
r 15.050670455 _10_ RTR  --- 2 DSR 48 [0 ffffffff 4 800] ------- [0:255 16:255 32 0] 2 [1 2] [0 2 0 0->16] [0 0 0 0->0]
r 15.050670534 _6_ RTR  --- 2 DSR 48 [0 ffffffff 4 800] ------- [0:255 16:255 32 0] 2 [1 2] [0 2 0 0->16] [0 0 0 0->0]
r 15.050670534 _0_ RTR  --- 2 DSR 48 [0 ffffffff 4 800] ------- [0:255 16:255 32 0] 2 [1 2] [0 2 0 0->16] [0 0 0 0->0]
r 15.050670534 _2_ RTR  --- 2 DSR 48 [0 ffffffff 4 800] ------- [0:255 16:255 32 0] 2 [1 2] [0 2 0 0->16] [0 0 0 0->0]
r 15.050670534 _8_ RTR  --- 2 DSR 48 [0 ffffffff 4 800] ------- [0:255 16:255 32 0] 2 [1 2] [0 2 0 0->16] [0 0 0 0->0]
f 15.051977768 _3_ RTR  --- 2 DSR 48 [0 ffffffff 0 800] ------- [0:255 16:255 32 0] 2 [1 2] [0 2 0 0->16] [0 0 0 0->0]
f 15.052177668 _6_ RTR  --- 2 DSR 48 [0 ffffffff 0 800] ------- [0:255 16:255 32 0] 2 [1 2] [0 2 0 0->16] [0 0 0 0->0]
f 15.052192356 _7_ RTR  --- 2 DSR 68 [0 ffffffff 1 800] ------- [0:255 16:255 32 0] 3 [1 2] [0 2 0 0->16] [0 0 0 0->0]
r 15.053252689 _4_ RTR  --- 2 DSR 68 [0 ffffffff 7 800] ------- [0:255 16:255 32 0] 3 [1 2] [0 2 0 0->16] [0 0 0 0->0]
r 15.053252689 _10_ RTR  --- 2 DSR 68 [0 ffffffff 7 800] ------- [0:255 16:255 32 0] 3 [1 2] [0 2 0 0->16] [0 0 0 0->0]
r 15.053253022 _1_ RTR  --- 2 DSR 68 [0 ffffffff 7 800] ------- [0:255 16:255 32 0] 3 [1 2] [0 2 0 0->16] [0 0 0 0->0]
r 15.053253022 _6_ RTR  --- 2 DSR 68 [0 ffffffff 7 800] ------- [0:255 16:255 32 0] 3 [1 2] [0 2 0 0->16] [0 0 0 0->0]
r 15.053253022 _13_ RTR  --- 2 DSR 68 [0 ffffffff 7 800] ------- [0:255 16:255 32 0] 3 [1 2] [0 2 0 0->16] [0 0 0 0->0]
r 15.053253022 _8_ RTR  --- 2 DSR 68 [0 ffffffff 7 800] ------- [0:255 16:255 32 0] 3 [1 2] [0 2 0 0->16] [0 0 0 0->0]
r 15.053253081 _5_ RTR  --- 2 DSR 68 [0 ffffffff 7 800] ------- [0:255 16:255 32 0] 3 [1 2] [0 2 0 0->16] [0 0 0 0->0]
r 15.053253101 _9_ RTR  --- 2 DSR 68 [0 ffffffff 7 800] ------- [0:255 16:255 32 0] 3 [1 2] [0 2 0 0->16] [0 0 0 0->0]
r 15.053253101 _3_ RTR  --- 2 DSR 68 [0 ffffffff 7 800] ------- [0:255 16:255 32 0] 3 [1 2] [0 2 0 0->16] [0 0 0 0->0]
r 15.053253101 _11_ RTR  --- 2 DSR 68 [0 ffffffff 7 800] ------- [0:255 16:255 32 0] 3 [1 2] [0 2 0 0->16] [0 0 0 0->0]
f 15.053365707 _10_ RTR  --- 2 DSR 68 [0 ffffffff 4 800] ------- [0:255 16:255 32 0] 3 [1 2] [0 2 0 0->16] [0 0 0 0->0]
f 15.053653080 _11_ RTR  --- 2 DSR 92 [0 ffffffff 7 800] ------- [0:255 16:255 32 0] 4 [1 2] [0 2 0 0->16] [0 0 0 0->0]
r 15.054183434 _0_ RTR  --- 2 DSR 48 [0 ffffffff 3 800] ------- [0:255 16:255 32 0] 2 [1 2] [0 2 0 0->16] [0 0 0 0->0]
r 15.054183434 _6_ RTR  --- 2 DSR 48 [0 ffffffff 3 800] ------- [0:255 16:255 32 0] 2 [1 2] [0 2 0 0->16] [0 0 0 0->0]
r 15.054183768 _9_ RTR  --- 2 DSR 48 [0 ffffffff 3 800] ------- [0:255 16:255 32 0] 2 [1 2] [0 2 0 0->16] [0 0 0 0->0]
r 15.054183768 _4_ RTR  --- 2 DSR 48 [0 ffffffff 3 800] ------- [0:255 16:255 32 0] 2 [1 2] [0 2 0 0->16] [0 0 0 0->0]
r 15.054183846 _1_ RTR  --- 2 DSR 48 [0 ffffffff 3 800] ------- [0:255 16:255 32 0] 2 [1 2] [0 2 0 0->16] [0 0 0 0->0]
r 15.054183846 _7_ RTR  --- 2 DSR 48 [0 ffffffff 3 800] ------- [0:255 16:255 32 0] 2 [1 2] [0 2 0 0->16] [0 0 0 0->0]
f 15.054249590 _8_ RTR  --- 2 DSR 68 [0 ffffffff 4 800] ------- [0:255 16:255 32 0] 3 [1 2] [0 2 0 0->16] [0 0 0 0->0]
r 15.055153768 _3_ RTR  --- 2 DSR 48 [0 ffffffff 6 800] ------- [0:255 16:255 32 0] 2 [1 2] [0 2 0 0->16] [0 0 0 0->0]
r 15.055153768 _9_ RTR  --- 2 DSR 48 [0 ffffffff 6 800] ------- [0:255 16:255 32 0] 2 [1 2] [0 2 0 0->16] [0 0 0 0->0]
r 15.055154101 _0_ RTR  --- 2 DSR 48 [0 ffffffff 6 800] ------- [0:255 16:255 32 0] 2 [1 2] [0 2 0 0->16] [0 0 0 0->0]
r 15.055154101 _12_ RTR  --- 2 DSR 48 [0 ffffffff 6 800] ------- [0:255 16:255 32 0] 2 [1 2] [0 2 0 0->16] [0 0 0 0->0]
r 15.055154101 _7_ RTR  --- 2 DSR 48 [0 ffffffff 6 800] ------- [0:255 16:255 32 0] 2 [1 2] [0 2 0 0->16] [0 0 0 0->0]
r 15.055154180 _4_ RTR  --- 2 DSR 48 [0 ffffffff 6 800] ------- [0:255 16:255 32 0] 2 [1 2] [0 2 0 0->16] [0 0 0 0->0]
r 15.055154180 _10_ RTR  --- 2 DSR 48 [0 ffffffff 6 800] ------- [0:255 16:255 32 0] 2 [1 2] [0 2 0 0->16] [0 0 0 0->0]
r 15.056524513 _7_ RTR  --- 2 DSR 68 [0 ffffffff a 800] ------- [0:255 16:255 32 0] 3 [1 2] [0 2 0 0->16] [0 0 0 0->0]
r 15.056524513 _13_ RTR  --- 2 DSR 68 [0 ffffffff a 800] ------- [0:255 16:255 32 0] 3 [1 2] [0 2 0 0->16] [0 0 0 0->0]
r 15.056524846 _4_ RTR  --- 2 DSR 68 [0 ffffffff a 800] ------- [0:255 16:255 32 0] 3 [1 2] [0 2 0 0->16] [0 0 0 0->0]
r 15.056524846 _9_ RTR  --- 2 DSR 68 [0 ffffffff a 800] ------- [0:255 16:255 32 0] 3 [1 2] [0 2 0 0->16] [0 0 0 0->0]
r 15.056524846 _16_ RTR  --- 2 DSR 68 [0 ffffffff a 800] ------- [0:255 16:255 32 0] 3 [1 2] [0 2 0 0->16] [0 0 0 0->0]
r 15.056524846 _11_ RTR  --- 2 DSR 68 [0 ffffffff a 800] ------- [0:255 16:255 32 0] 3 [1 2] [0 2 0 0->16] [0 0 0 0->0]
r 15.056524925 _12_ RTR  --- 2 DSR 68 [0 ffffffff a 800] ------- [0:255 16:255 32 0] 3 [1 2] [0 2 0 0->16] [0 0 0 0->0]
r 15.056524925 _6_ RTR  --- 2 DSR 68 [0 ffffffff a 800] ------- [0:255 16:255 32 0] 3 [1 2] [0 2 0 0->16] [0 0 0 0->0]
r 15.056524925 _8_ RTR  --- 2 DSR 68 [0 ffffffff a 800] ------- [0:255 16:255 32 0] 3 [1 2] [0 2 0 0->16] [0 0 0 0->0]
r 15.056524925 _14_ RTR  --- 2 DSR 68 [0 ffffffff a 800] ------- [0:255 16:255 32 0] 3 [1 2] [0 2 0 0->16] [0 0 0 0->0]
f 15.057247533 _9_ RTR  --- 2 DSR 92 [0 ffffffff 7 800] ------- [0:255 16:255 32 0] 4 [1 2] [0 2 0 0->16] [0 0 0 0->0]
r 15.057867180 _8_ RTR  --- 2 DSR 92 [0 ffffffff b 800] ------- [0:255 16:255 32 0] 4 [1 2] [0 2 0 0->16] [0 0 0 0->0]
r 15.057867180 _14_ RTR  --- 2 DSR 92 [0 ffffffff b 800] ------- [0:255 16:255 32 0] 4 [1 2] [0 2 0 0->16] [0 0 0 0->0]
r 15.057867500 _5_ RTR  --- 2 DSR 92 [0 ffffffff b 800] ------- [0:255 16:255 32 0] 4 [1 2] [0 2 0 0->16] [0 0 0 0->0]
r 15.057867513 _10_ RTR  --- 2 DSR 92 [0 ffffffff b 800] ------- [0:255 16:255 32 0] 4 [1 2] [0 2 0 0->16] [0 0 0 0->0]
r 15.057867513 _17_ RTR  --- 2 DSR 92 [0 ffffffff b 800] ------- [0:255 16:255 32 0] 4 [1 2] [0 2 0 0->16] [0 0 0 0->0]
r 15.057867592 _13_ RTR  --- 2 DSR 92 [0 ffffffff b 800] ------- [0:255 16:255 32 0] 4 [1 2] [0 2 0 0->16] [0 0 0 0->0]
r 15.057867592 _7_ RTR  --- 2 DSR 92 [0 ffffffff b 800] ------- [0:255 16:255 32 0] 4 [1 2] [0 2 0 0->16] [0 0 0 0->0]
f 15.058687367 _5_ RTR  --- 2 DSR 68 [0 ffffffff 1 800] ------- [0:255 16:255 32 0] 3 [1 2] [0 2 0 0->16] [0 0 0 0->0]
r 15.059097500 _5_ RTR  --- 2 DSR 68 [0 ffffffff 8 800] ------- [0:255 16:255 32 0] 3 [1 2] [0 2 0 0->16] [0 0 0 0->0]
r 15.059097513 _11_ RTR  --- 2 DSR 68 [0 ffffffff 8 800] ------- [0:255 16:255 32 0] 3 [1 2] [0 2 0 0->16] [0 0 0 0->0]
r 15.059097846 _2_ RTR  --- 2 DSR 68 [0 ffffffff 8 800] ------- [0:255 16:255 32 0] 3 [1 2] [0 2 0 0->16] [0 0 0 0->0]
r 15.059097846 _7_ RTR  --- 2 DSR 68 [0 ffffffff 8 800] ------- [0:255 16:255 32 0] 3 [1 2] [0 2 0 0->16] [0 0 0 0->0]
r 15.059097846 _14_ RTR  --- 2 DSR 68 [0 ffffffff 8 800] ------- [0:255 16:255 32 0] 3 [1 2] [0 2 0 0->16] [0 0 0 0->0]
r 15.059097925 _10_ RTR  --- 2 DSR 68 [0 ffffffff 8 800] ------- [0:255 16:255 32 0] 3 [1 2] [0 2 0 0->16] [0 0 0 0->0]
r 15.059097925 _4_ RTR  --- 2 DSR 68 [0 ffffffff 8 800] ------- [0:255 16:255 32 0] 3 [1 2] [0 2 0 0->16] [0 0 0 0->0]
f 15.059182493 _2_ RTR  --- 2 DSR 68 [0 ffffffff 1 800] ------- [0:255 16:255 32 0] 3 [1 2] [0 2 0 0->16] [0 0 0 0->0]
f 15.059261336 _17_ RTR  --- 2 DSR 120 [0 ffffffff b 800] ------- [0:255 16:255 32 0] 5 [1 2] [0 2 0 0->16] [0 0 0 0->0]
f 15.059555518 _13_ RTR  --- 2 DSR 92 [0 ffffffff 7 800] ------- [0:255 16:255 32 0] 4 [1 2] [0 2 0 0->16] [0 0 0 0->0]
r 15.060187820 _8_ RTR  --- 2 DSR 68 [0 ffffffff 5 800] ------- [0:255 16:255 32 0] 3 [1 2] [0 2 0 0->16] [0 0 0 0->0]
r 15.060187847 _2_ RTR  --- 2 DSR 68 [0 ffffffff 5 800] ------- [0:255 16:255 32 0] 3 [1 2] [0 2 0 0->16] [0 0 0 0->0]
r 15.060188151 _4_ RTR  --- 2 DSR 68 [0 ffffffff 5 800] ------- [0:255 16:255 32 0] 3 [1 2] [0 2 0 0->16] [0 0 0 0->0]
r 15.060188154 _11_ RTR  --- 2 DSR 68 [0 ffffffff 5 800] ------- [0:255 16:255 32 0] 3 [1 2] [0 2 0 0->16] [0 0 0 0->0]
r 15.060188225 _7_ RTR  --- 2 DSR 68 [0 ffffffff 5 800] ------- [0:255 16:255 32 0] 3 [1 2] [0 2 0 0->16] [0 0 0 0->0]
r 15.060188237 _1_ RTR  --- 2 DSR 68 [0 ffffffff 5 800] ------- [0:255 16:255 32 0] 3 [1 2] [0 2 0 0->16] [0 0 0 0->0]
r 15.061298194 _5_ RTR  --- 2 DSR 68 [0 ffffffff 2 800] ------- [0:255 16:255 32 0] 3 [1 2] [0 2 0 0->16] [0 0 0 0->0]
r 15.061298514 _1_ RTR  --- 2 DSR 68 [0 ffffffff 2 800] ------- [0:255 16:255 32 0] 3 [1 2] [0 2 0 0->16] [0 0 0 0->0]
r 15.061298514 _8_ RTR  --- 2 DSR 68 [0 ffffffff 2 800] ------- [0:255 16:255 32 0] 3 [1 2] [0 2 0 0->16] [0 0 0 0->0]
r 15.061298592 _4_ RTR  --- 2 DSR 68 [0 ffffffff 2 800] ------- [0:255 16:255 32 0] 3 [1 2] [0 2 0 0->16] [0 0 0 0->0]
f 15.061719521 _14_ RTR  --- 2 DSR 92 [0 ffffffff a 800] ------- [0:255 16:255 32 0] 4 [1 2] [0 2 0 0->16] [0 0 0 0->0]
r 15.063025671 _10_ RTR  --- 2 DSR 92 [0 ffffffff d 800] ------- [0:255 16:255 32 0] 4 [1 2] [0 2 0 0->16] [0 0 0 0->0]
r 15.063025671 _16_ RTR  --- 2 DSR 92 [0 ffffffff d 800] ------- [0:255 16:255 32 0] 4 [1 2] [0 2 0 0->16] [0 0 0 0->0]
r 15.063026004 _7_ RTR  --- 2 DSR 92 [0 ffffffff d 800] ------- [0:255 16:255 32 0] 4 [1 2] [0 2 0 0->16] [0 0 0 0->0]
r 15.063026004 _12_ RTR  --- 2 DSR 92 [0 ffffffff d 800] ------- [0:255 16:255 32 0] 4 [1 2] [0 2 0 0->16] [0 0 0 0->0]
r 15.063026004 _14_ RTR  --- 2 DSR 92 [0 ffffffff d 800] ------- [0:255 16:255 32 0] 4 [1 2] [0 2 0 0->16] [0 0 0 0->0]
r 15.063026083 _15_ RTR  --- 2 DSR 92 [0 ffffffff d 800] ------- [0:255 16:255 32 0] 4 [1 2] [0 2 0 0->16] [0 0 0 0->0]
r 15.063026083 _9_ RTR  --- 2 DSR 92 [0 ffffffff d 800] ------- [0:255 16:255 32 0] 4 [1 2] [0 2 0 0->16] [0 0 0 0->0]
r 15.063026083 _11_ RTR  --- 2 DSR 92 [0 ffffffff d 800] ------- [0:255 16:255 32 0] 4 [1 2] [0 2 0 0->16] [0 0 0 0->0]
r 15.063026083 _17_ RTR  --- 2 DSR 92 [0 ffffffff d 800] ------- [0:255 16:255 32 0] 4 [1 2] [0 2 0 0->16] [0 0 0 0->0]
f 15.064026010 _12_ RTR  --- 2 DSR 68 [0 ffffffff 6 800] ------- [0:255 16:255 32 0] 3 [1 2] [0 2 0 0->16] [0 0 0 0->0]
r 15.064288416 _6_ RTR  --- 2 DSR 92 [0 ffffffff 9 800] ------- [0:255 16:255 32 0] 4 [1 2] [0 2 0 0->16] [0 0 0 0->0]
r 15.064288416 _12_ RTR  --- 2 DSR 92 [0 ffffffff 9 800] ------- [0:255 16:255 32 0] 4 [1 2] [0 2 0 0->16] [0 0 0 0->0]
r 15.064288750 _3_ RTR  --- 2 DSR 92 [0 ffffffff 9 800] ------- [0:255 16:255 32 0] 4 [1 2] [0 2 0 0->16] [0 0 0 0->0]
r 15.064288750 _15_ RTR  --- 2 DSR 92 [0 ffffffff 9 800] ------- [0:255 16:255 32 0] 4 [1 2] [0 2 0 0->16] [0 0 0 0->0]
r 15.064288750 _10_ RTR  --- 2 DSR 92 [0 ffffffff 9 800] ------- [0:255 16:255 32 0] 4 [1 2] [0 2 0 0->16] [0 0 0 0->0]
r 15.064288828 _7_ RTR  --- 2 DSR 92 [0 ffffffff 9 800] ------- [0:255 16:255 32 0] 4 [1 2] [0 2 0 0->16] [0 0 0 0->0]
r 15.064288828 _13_ RTR  --- 2 DSR 92 [0 ffffffff 9 800] ------- [0:255 16:255 32 0] 4 [1 2] [0 2 0 0->16] [0 0 0 0->0]
f 15.065102618 _15_ RTR  --- 2 DSR 120 [0 ffffffff d 800] ------- [0:255 16:255 32 0] 5 [1 2] [0 2 0 0->16] [0 0 0 0->0]
r 15.065458750 _9_ RTR  --- 2 DSR 68 [0 ffffffff c 800] ------- [0:255 16:255 32 0] 3 [1 2] [0 2 0 0->16] [0 0 0 0->0]
r 15.065458750 _15_ RTR  --- 2 DSR 68 [0 ffffffff c 800] ------- [0:255 16:255 32 0] 3 [1 2] [0 2 0 0->16] [0 0 0 0->0]
r 15.065459083 _6_ RTR  --- 2 DSR 68 [0 ffffffff c 800] ------- [0:255 16:255 32 0] 3 [1 2] [0 2 0 0->16] [0 0 0 0->0]
r 15.065459083 _13_ RTR  --- 2 DSR 68 [0 ffffffff c 800] ------- [0:255 16:255 32 0] 3 [1 2] [0 2 0 0->16] [0 0 0 0->0]
r 15.065459162 _10_ RTR  --- 2 DSR 68 [0 ffffffff c 800] ------- [0:255 16:255 32 0] 3 [1 2] [0 2 0 0->16] [0 0 0 0->0]
r 15.065459162 _16_ RTR  --- 2 DSR 68 [0 ffffffff c 800] ------- [0:255 16:255 32 0] 3 [1 2] [0 2 0 0->16] [0 0 0 0->0]
s 15.065593653 _16_ RTR  --- 3 DSR 60 [0 0 0 0] ------- [16:255 0:255 254 10] 4 [0 2] [1 2 4 0->16] [0 0 0 0->0]
r 15.066945083 _12_ RTR  --- 2 DSR 120 [0 ffffffff f 800] ------- [0:255 16:255 32 0] 5 [1 2] [0 2 0 0->16] [0 0 0 0->0]
r 15.066945416 _9_ RTR  --- 2 DSR 120 [0 ffffffff f 800] ------- [0:255 16:255 32 0] 5 [1 2] [0 2 0 0->16] [0 0 0 0->0]
r 15.066945416 _16_ RTR  --- 2 DSR 120 [0 ffffffff f 800] ------- [0:255 16:255 32 0] 5 [1 2] [0 2 0 0->16] [0 0 0 0->0]
r 15.066945495 _13_ RTR  --- 2 DSR 120 [0 ffffffff f 800] ------- [0:255 16:255 32 0] 5 [1 2] [0 2 0 0->16] [0 0 0 0->0]
s 15.068181154 _16_ RTR  --- 4 DSR 68 [0 0 0 0] ------- [16:255 0:255 254 13] 5 [0 2] [1 2 5 0->16] [0 0 0 0->0]
r 15.068749416 _10_ RTR  --- 3 DSR 60 [13a a 10 800] ------- [16:255 0:255 254 10] 4 [0 2] [1 2 4 0->16] [0 0 0 0->0]
f 15.068749416 _10_ RTR  --- 3 DSR 60 [13a a 10 800] ------- [16:255 0:255 253 4] 4 [0 2] [1 2 4 0->16] [0 0 0 0->0]
r 15.070426495 _11_ RTR  --- 2 DSR 92 [0 ffffffff e 800] ------- [0:255 16:255 32 0] 4 [1 2] [0 2 0 0->16] [0 0 0 0->0]
r 15.070426495 _17_ RTR  --- 2 DSR 92 [0 ffffffff e 800] ------- [0:255 16:255 32 0] 4 [1 2] [0 2 0 0->16] [0 0 0 0->0]
r 15.070426828 _8_ RTR  --- 2 DSR 92 [0 ffffffff e 800] ------- [0:255 16:255 32 0] 4 [1 2] [0 2 0 0->16] [0 0 0 0->0]
r 15.070426828 _13_ RTR  --- 2 DSR 92 [0 ffffffff e 800] ------- [0:255 16:255 32 0] 4 [1 2] [0 2 0 0->16] [0 0 0 0->0]
r 15.070426907 _16_ RTR  --- 2 DSR 92 [0 ffffffff e 800] ------- [0:255 16:255 32 0] 4 [1 2] [0 2 0 0->16] [0 0 0 0->0]
r 15.070426907 _10_ RTR  --- 2 DSR 92 [0 ffffffff e 800] ------- [0:255 16:255 32 0] 4 [1 2] [0 2 0 0->16] [0 0 0 0->0]
s 15.071374406 _0_ AGT  --- 8 cbr 512 [0 0 0 0] ------- [0:0 16:0 32 0] [1] 0 0
r 15.071374406 _0_ RTR  --- 8 cbr 512 [0 0 0 0] ------- [0:0 16:0 32 0] [1] 0 0
r 15.071952828 _14_ RTR  --- 2 DSR 120 [0 ffffffff 11 800] ------- [0:255 16:255 32 0] 5 [1 2] [0 2 0 0->16] [0 0 0 0->0]
s 15.073072739 _16_ RTR  --- 7 DSR 68 [0 0 0 0] ------- [16:255 0:255 254 14] 5 [0 2] [1 2 5 0->16] [0 0 0 0->0]
s 15.073194480 _16_ RTR  --- 5 DSR 60 [0 0 0 0] ------- [16:255 0:255 254 12] 4 [0 2] [1 2 4 0->16] [0 0 0 0->0]
s 15.073820834 _16_ RTR  --- 6 DSR 76 [0 0 0 0] ------- [16:255 0:255 254 15] 6 [0 2] [1 2 6 0->16] [0 0 0 0->0]
r 15.074144162 _13_ RTR  --- 4 DSR 68 [13a d 10 800] ------- [16:255 0:255 254 13] 5 [0 2] [1 2 5 0->16] [0 0 0 0->0]
f 15.074144162 _13_ RTR  --- 4 DSR 68 [13a d 10 800] ------- [16:255 0:255 253 7] 5 [0 2] [1 2 5 0->16] [0 0 0 0->0]
r 15.076302495 _4_ RTR  --- 3 DSR 60 [13a 4 a 800] ------- [16:255 0:255 253 4] 4 [0 2] [1 2 4 0->16] [0 0 0 0->0]
f 15.076302495 _4_ RTR  --- 3 DSR 60 [13a 4 a 800] ------- [16:255 0:255 252 0] 4 [0 2] [1 2 4 0->16] [0 0 0 0->0]
r 15.078820731 _0_ RTR  --- 3 DSR 60 [13a 0 4 800] ------- [16:255 0:255 252 0] 4 [0 2] [1 2 4 0->16] [0 0 0 0->0]
SFESTs 15.078820731 _0_ 0 [0 -> 16] 1(1) to 4 [0 |4 10 16 ]
SFESTs 15.078820731 _0_ 8 [0 -> 16] 1(1) to 4 [0 |4 10 16 ]
s 15.078820731 _0_ RTR  --- 0 cbr 556 [0 0 0 0] ------- [0:0 16:0 32 4] [0] 0 0
r 15.085106967 _4_ RTR  --- 0 cbr 556 [13a 4 0 800] ------- [0:0 16:0 32 4] [0] 1 0
f 15.085106967 _4_ RTR  --- 0 cbr 556 [13a 4 0 800] ------- [0:0 16:0 31 10] [0] 1 0
r 15.087573967 _7_ RTR  --- 4 DSR 68 [13a 7 d 800] ------- [16:255 0:255 253 7] 5 [0 2] [1 2 5 0->16] [0 0 0 0->0]
f 15.087573967 _7_ RTR  --- 4 DSR 68 [13a 7 d 800] ------- [16:255 0:255 252 1] 5 [0 2] [1 2 5 0->16] [0 0 0 0->0]
r 15.093570301 _10_ RTR  --- 0 cbr 556 [13a a 4 800] ------- [0:0 16:0 31 10] [0] 2 0
f 15.093570301 _10_ RTR  --- 0 cbr 556 [13a a 4 800] ------- [0:0 16:0 30 16] [0] 2 0
r 15.095612634 _1_ RTR  --- 4 DSR 68 [13a 1 7 800] ------- [16:255 0:255 252 1] 5 [0 2] [1 2 5 0->16] [0 0 0 0->0]
f 15.095612634 _1_ RTR  --- 4 DSR 68 [13a 1 7 800] ------- [16:255 0:255 251 0] 5 [0 2] [1 2 5 0->16] [0 0 0 0->0]
r 15.097974634 _0_ RTR  --- 4 DSR 68 [13a 0 1 800] ------- [16:255 0:255 251 0] 5 [0 2] [1 2 5 0->16] [0 0 0 0->0]
r 15.100466429 _15_ RTR  --- 6 DSR 76 [13a f 10 800] ------- [16:255 0:255 254 15] 6 [0 2] [1 2 6 0->16] [0 0 0 0->0]
f 15.100466429 _15_ RTR  --- 6 DSR 76 [13a f 10 800] ------- [16:255 0:255 253 13] 6 [0 2] [1 2 6 0->16] [0 0 0 0->0]
r 15.102652665 _13_ RTR  --- 6 DSR 76 [13a d f 800] ------- [16:255 0:255 253 13] 6 [0 2] [1 2 6 0->16] [0 0 0 0->0]
f 15.102652665 _13_ RTR  --- 6 DSR 76 [13a d f 800] ------- [16:255 0:255 252 7] 6 [0 2] [1 2 6 0->16] [0 0 0 0->0]
r 15.104718665 _7_ RTR  --- 6 DSR 76 [13a 7 d 800] ------- [16:255 0:255 252 7] 6 [0 2] [1 2 6 0->16] [0 0 0 0->0]
f 15.104718665 _7_ RTR  --- 6 DSR 76 [13a 7 d 800] ------- [16:255 0:255 251 1] 6 [0 2] [1 2 6 0->16] [0 0 0 0->0]
r 15.106824665 _1_ RTR  --- 6 DSR 76 [13a 1 7 800] ------- [16:255 0:255 251 1] 6 [0 2] [1 2 6 0->16] [0 0 0 0->0]
f 15.106824665 _1_ RTR  --- 6 DSR 76 [13a 1 7 800] ------- [16:255 0:255 250 0] 6 [0 2] [1 2 6 0->16] [0 0 0 0->0]
s 15.108820731 _0_ RTR  --- 8 cbr 556 [0 0 0 0] ------- [0:0 16:0 32 4] [1] 0 0
r 15.109228568 _12_ RTR  --- 5 DSR 60 [13a c 10 800] ------- [16:255 0:255 254 12] 4 [0 2] [1 2 4 0->16] [0 0 0 0->0]
f 15.109228568 _12_ RTR  --- 5 DSR 60 [13a c 10 800] ------- [16:255 0:255 253 6] 4 [0 2] [1 2 4 0->16] [0 0 0 0->0]
r 15.115255313 _16_ RTR  --- 0 cbr 556 [13a 10 a 800] ------- [0:0 16:0 30 16] [0] 3 0
r 15.115255313 _16_ AGT  --- 0 cbr 512 [13a 10 a 800] ------- [0:0 16:0 30 16] [0] 3 0
r 15.117314058 _6_ RTR  --- 5 DSR 60 [13a 6 c 800] ------- [16:255 0:255 253 6] 4 [0 2] [1 2 4 0->16] [0 0 0 0->0]
f 15.117314058 _6_ RTR  --- 5 DSR 60 [13a 6 c 800] ------- [16:255 0:255 252 0] 4 [0 2] [1 2 4 0->16] [0 0 0 0->0]
r 15.119632058 _0_ RTR  --- 5 DSR 60 [13a 0 6 800] ------- [16:255 0:255 252 0] 4 [0 2] [1 2 4 0->16] [0 0 0 0->0]
r 15.121808335 _0_ RTR  --- 6 DSR 76 [13a 0 1 800] ------- [16:255 0:255 250 0] 6 [0 2] [1 2 6 0->16] [0 0 0 0->0]
r 15.127814571 _4_ RTR  --- 8 cbr 556 [13a 4 0 800] ------- [0:0 16:0 32 4] [1] 1 0
f 15.127814571 _4_ RTR  --- 8 cbr 556 [13a 4 0 800] ------- [0:0 16:0 31 10] [1] 1 0
r 15.133900571 _10_ RTR  --- 8 cbr 556 [13a a 4 800] ------- [0:0 16:0 31 10] [1] 2 0
f 15.133900571 _10_ RTR  --- 8 cbr 556 [13a a 4 800] ------- [0:0 16:0 30 16] [1] 2 0
r 15.136073473 _14_ RTR  --- 7 DSR 68 [13a e 10 800] ------- [16:255 0:255 254 14] 5 [0 2] [1 2 5 0->16] [0 0 0 0->0]
f 15.136073473 _14_ RTR  --- 7 DSR 68 [13a e 10 800] ------- [16:255 0:255 253 10] 5 [0 2] [1 2 5 0->16] [0 0 0 0->0]
r 15.142000219 _16_ RTR  --- 8 cbr 556 [13a 10 a 800] ------- [0:0 16:0 30 16] [1] 3 0
r 15.142000219 _16_ AGT  --- 8 cbr 512 [13a 10 a 800] ------- [0:0 16:0 30 16] [1] 3 0
r 15.144223200 _10_ RTR  --- 7 DSR 68 [13a a e 800] ------- [16:255 0:255 253 10] 5 [0 2] [1 2 5 0->16] [0 0 0 0->0]
f 15.144223200 _10_ RTR  --- 7 DSR 68 [13a a e 800] ------- [16:255 0:255 252 4] 5 [0 2] [1 2 5 0->16] [0 0 0 0->0]
r 15.146505200 _4_ RTR  --- 7 DSR 68 [13a 4 a 800] ------- [16:255 0:255 252 4] 5 [0 2] [1 2 5 0->16] [0 0 0 0->0]
f 15.146505200 _4_ RTR  --- 7 DSR 68 [13a 4 a 800] ------- [16:255 0:255 251 0] 5 [0 2] [1 2 5 0->16] [0 0 0 0->0]
r 15.148927436 _0_ RTR  --- 7 DSR 68 [13a 0 4 800] ------- [16:255 0:255 251 0] 5 [0 2] [1 2 5 0->16] [0 0 0 0->0]
s 15.160048896 _0_ AGT  --- 10 cbr 512 [0 0 0 0] ------- [0:0 16:0 32 0] [2] 0 0
r 15.160048896 _0_ RTR  --- 10 cbr 512 [0 0 0 0] ------- [0:0 16:0 32 0] [2] 0 0
SFESTs 15.160048896 _0_ 10 [0 -> 16] 1(1) to 4 [0 |4 10 16 ]
s 15.160048896 _0_ RTR  --- 10 cbr 556 [0 0 0 0] ------- [0:0 16:0 32 4] [2] 0 0
r 15.165771132 _4_ RTR  --- 10 cbr 556 [13a 4 0 800] ------- [0:0 16:0 32 4] [2] 1 0
f 15.165771132 _4_ RTR  --- 10 cbr 556 [13a 4 0 800] ------- [0:0 16:0 31 10] [2] 1 0
r 15.171937132 _10_ RTR  --- 10 cbr 556 [13a a 4 800] ------- [0:0 16:0 31 10] [2] 2 0
f 15.171937132 _10_ RTR  --- 10 cbr 556 [13a a 4 800] ------- [0:0 16:0 30 16] [2] 2 0
r 15.178363132 _16_ RTR  --- 10 cbr 556 [13a 10 a 800] ------- [0:0 16:0 30 16] [2] 3 0
r 15.178363132 _16_ AGT  --- 10 cbr 512 [13a 10 a 800] ------- [0:0 16:0 30 16] [2] 3 0
s 15.307362110 _0_ AGT  --- 11 cbr 512 [0 0 0 0] ------- [0:0 16:0 32 0] [3] 0 0
r 15.307362110 _0_ RTR  --- 11 cbr 512 [0 0 0 0] ------- [0:0 16:0 32 0] [3] 0 0
SFs 15.307362110 _0_ 11 [0 -> 16] 1(0) to 4 
s 15.307362110 _0_ RTR  --- 11 cbr 532 [0 0 0 0] ------- [0:0 16:0 32 4] [3] 0 0
r 15.313312346 _4_ RTR  --- 11 cbr 532 [13a 4 0 800] ------- [0:0 16:0 32 4] [3] 1 0
SFf 15.313312346 _4_ 11 [0 -> 16] 1 to 10
f 15.313312346 _4_ RTR  --- 11 cbr 532 [13a 4 0 800] ------- [0:0 16:0 31 10] [3] 1 0
r 15.319606346 _10_ RTR  --- 11 cbr 532 [13a a 4 800] ------- [0:0 16:0 31 10] [3] 2 0
SFf 15.319606346 _10_ 11 [0 -> 16] 1 to 16
f 15.319606346 _10_ RTR  --- 11 cbr 532 [13a a 4 800] ------- [0:0 16:0 30 16] [3] 2 0
r 15.325340346 _16_ RTR  --- 11 cbr 532 [13a 10 a 800] ------- [0:0 16:0 30 16] [3] 3 0
r 15.325340346 _16_ AGT  --- 11 cbr 512 [13a 10 a 800] ------- [0:0 16:0 30 16] [3] 3 0
s 15.400204664 _0_ AGT  --- 12 cbr 512 [0 0 0 0] ------- [0:0 16:0 32 0] [4] 0 0
r 15.400204664 _0_ RTR  --- 12 cbr 512 [0 0 0 0] ------- [0:0 16:0 32 0] [4] 0 0
SFs 15.400204664 _0_ 12 [0 -> 16] 1(0) to 4 
s 15.400204664 _0_ RTR  --- 12 cbr 532 [0 0 0 0] ------- [0:0 16:0 32 4] [4] 0 0
r 15.405994901 _4_ RTR  --- 12 cbr 532 [13a 4 0 800] ------- [0:0 16:0 32 4] [4] 1 0
SFf 15.405994901 _4_ 12 [0 -> 16] 1 to 10
f 15.405994901 _4_ RTR  --- 12 cbr 532 [13a 4 0 800] ------- [0:0 16:0 31 10] [4] 1 0
r 15.412028901 _10_ RTR  --- 12 cbr 532 [13a a 4 800] ------- [0:0 16:0 31 10] [4] 2 0
SFf 15.412028901 _10_ 12 [0 -> 16] 1 to 16
f 15.412028901 _10_ RTR  --- 12 cbr 532 [13a a 4 800] ------- [0:0 16:0 30 16] [4] 2 0
r 15.417802901 _16_ RTR  --- 12 cbr 532 [13a 10 a 800] ------- [0:0 16:0 30 16] [4] 3 0
r 15.417802901 _16_ AGT  --- 12 cbr 512 [13a 10 a 800] ------- [0:0 16:0 30 16] [4] 3 0
s 15.538941182 _0_ AGT  --- 13 cbr 512 [0 0 0 0] ------- [0:0 16:0 32 0] [5] 0 0
r 15.538941182 _0_ RTR  --- 13 cbr 512 [0 0 0 0] ------- [0:0 16:0 32 0] [5] 0 0
SFs 15.538941182 _0_ 13 [0 -> 16] 1(0) to 4 
s 15.538941182 _0_ RTR  --- 13 cbr 532 [0 0 0 0] ------- [0:0 16:0 32 4] [5] 0 0
r 15.544411418 _4_ RTR  --- 13 cbr 532 [13a 4 0 800] ------- [0:0 16:0 32 4] [5] 1 0
SFf 15.544411418 _4_ 13 [0 -> 16] 1 to 10
f 15.544411418 _4_ RTR  --- 13 cbr 532 [13a 4 0 800] ------- [0:0 16:0 31 10] [5] 1 0
r 15.550605418 _10_ RTR  --- 13 cbr 532 [13a a 4 800] ------- [0:0 16:0 31 10] [5] 2 0
SFf 15.550605418 _10_ 13 [0 -> 16] 1 to 16
f 15.550605418 _10_ RTR  --- 13 cbr 532 [13a a 4 800] ------- [0:0 16:0 30 16] [5] 2 0
r 15.556739418 _16_ RTR  --- 13 cbr 532 [13a 10 a 800] ------- [0:0 16:0 30 16] [5] 3 0
r 15.556739418 _16_ AGT  --- 13 cbr 512 [13a 10 a 800] ------- [0:0 16:0 30 16] [5] 3 0
s 15.649699235 _0_ AGT  --- 14 cbr 512 [0 0 0 0] ------- [0:0 16:0 32 0] [6] 0 0
r 15.649699235 _0_ RTR  --- 14 cbr 512 [0 0 0 0] ------- [0:0 16:0 32 0] [6] 0 0
SFs 15.649699235 _0_ 14 [0 -> 16] 1(0) to 4 
s 15.649699235 _0_ RTR  --- 14 cbr 532 [0 0 0 0] ------- [0:0 16:0 32 4] [6] 0 0
r 15.655469471 _4_ RTR  --- 14 cbr 532 [13a 4 0 800] ------- [0:0 16:0 32 4] [6] 1 0
SFf 15.655469471 _4_ 14 [0 -> 16] 1 to 10
f 15.655469471 _4_ RTR  --- 14 cbr 532 [13a 4 0 800] ------- [0:0 16:0 31 10] [6] 1 0
r 15.661263471 _10_ RTR  --- 14 cbr 532 [13a a 4 800] ------- [0:0 16:0 31 10] [6] 2 0
SFf 15.661263471 _10_ 14 [0 -> 16] 1 to 16
f 15.661263471 _10_ RTR  --- 14 cbr 532 [13a a 4 800] ------- [0:0 16:0 30 16] [6] 2 0
r 15.667437471 _16_ RTR  --- 14 cbr 532 [13a 10 a 800] ------- [0:0 16:0 30 16] [6] 3 0
r 15.667437471 _16_ AGT  --- 14 cbr 512 [13a 10 a 800] ------- [0:0 16:0 30 16] [6] 3 0
s 15.795880692 _0_ AGT  --- 15 cbr 512 [0 0 0 0] ------- [0:0 16:0 32 0] [7] 0 0
r 15.795880692 _0_ RTR  --- 15 cbr 512 [0 0 0 0] ------- [0:0 16:0 32 0] [7] 0 0
SFs 15.795880692 _0_ 15 [0 -> 16] 1(0) to 4 
s 15.795880692 _0_ RTR  --- 15 cbr 532 [0 0 0 0] ------- [0:0 16:0 32 4] [7] 0 0
r 15.801690928 _4_ RTR  --- 15 cbr 532 [13a 4 0 800] ------- [0:0 16:0 32 4] [7] 1 0
SFf 15.801690928 _4_ 15 [0 -> 16] 1 to 10
f 15.801690928 _4_ RTR  --- 15 cbr 532 [13a 4 0 800] ------- [0:0 16:0 31 10] [7] 1 0
r 15.807804928 _10_ RTR  --- 15 cbr 532 [13a a 4 800] ------- [0:0 16:0 31 10] [7] 2 0
SFf 15.807804928 _10_ 15 [0 -> 16] 1 to 16
f 15.807804928 _10_ RTR  --- 15 cbr 532 [13a a 4 800] ------- [0:0 16:0 30 16] [7] 2 0
r 15.813938928 _16_ RTR  --- 15 cbr 532 [13a 10 a 800] ------- [0:0 16:0 30 16] [7] 3 0
r 15.813938928 _16_ AGT  --- 15 cbr 512 [13a 10 a 800] ------- [0:0 16:0 30 16] [7] 3 0
s 15.860008462 _0_ AGT  --- 16 cbr 512 [0 0 0 0] ------- [0:0 16:0 32 0] [8] 0 0
r 15.860008462 _0_ RTR  --- 16 cbr 512 [0 0 0 0] ------- [0:0 16:0 32 0] [8] 0 0
SFs 15.860008462 _0_ 16 [0 -> 16] 1(0) to 4 
s 15.860008462 _0_ RTR  --- 16 cbr 532 [0 0 0 0] ------- [0:0 16:0 32 4] [8] 0 0
r 15.865758698 _4_ RTR  --- 16 cbr 532 [13a 4 0 800] ------- [0:0 16:0 32 4] [8] 1 0
SFf 15.865758698 _4_ 16 [0 -> 16] 1 to 10
f 15.865758698 _4_ RTR  --- 16 cbr 532 [13a 4 0 800] ------- [0:0 16:0 31 10] [8] 1 0
r 15.871592698 _10_ RTR  --- 16 cbr 532 [13a a 4 800] ------- [0:0 16:0 31 10] [8] 2 0
SFf 15.871592698 _10_ 16 [0 -> 16] 1 to 16
f 15.871592698 _10_ RTR  --- 16 cbr 532 [13a a 4 800] ------- [0:0 16:0 30 16] [8] 2 0
r 15.877766698 _16_ RTR  --- 16 cbr 532 [13a 10 a 800] ------- [0:0 16:0 30 16] [8] 3 0
r 15.877766698 _16_ AGT  --- 16 cbr 512 [13a 10 a 800] ------- [0:0 16:0 30 16] [8] 3 0
s 15.975432813 _0_ AGT  --- 17 cbr 512 [0 0 0 0] ------- [0:0 16:0 32 0] [9] 0 0
r 15.975432813 _0_ RTR  --- 17 cbr 512 [0 0 0 0] ------- [0:0 16:0 32 0] [9] 0 0
SFs 15.975432813 _0_ 17 [0 -> 16] 1(0) to 4 
s 15.975432813 _0_ RTR  --- 17 cbr 532 [0 0 0 0] ------- [0:0 16:0 32 4] [9] 0 0
r 15.981483049 _4_ RTR  --- 17 cbr 532 [13a 4 0 800] ------- [0:0 16:0 32 4] [9] 1 0
SFf 15.981483049 _4_ 17 [0 -> 16] 1 to 10
f 15.981483049 _4_ RTR  --- 17 cbr 532 [13a 4 0 800] ------- [0:0 16:0 31 10] [9] 1 0
r 15.987477049 _10_ RTR  --- 17 cbr 532 [13a a 4 800] ------- [0:0 16:0 31 10] [9] 2 0
SFf 15.987477049 _10_ 17 [0 -> 16] 1 to 16
f 15.987477049 _10_ RTR  --- 17 cbr 532 [13a a 4 800] ------- [0:0 16:0 30 16] [9] 2 0
r 15.993611049 _16_ RTR  --- 17 cbr 532 [13a 10 a 800] ------- [0:0 16:0 30 16] [9] 3 0
r 15.993611049 _16_ AGT  --- 17 cbr 512 [13a 10 a 800] ------- [0:0 16:0 30 16] [9] 3 0
s 16.036199834 _0_ AGT  --- 18 cbr 512 [0 0 0 0] ------- [0:0 16:0 32 0] [10] 0 0
r 16.036199834 _0_ RTR  --- 18 cbr 512 [0 0 0 0] ------- [0:0 16:0 32 0] [10] 0 0
SFs 16.036199834 _0_ 18 [0 -> 16] 1(0) to 4 
s 16.036199834 _0_ RTR  --- 18 cbr 532 [0 0 0 0] ------- [0:0 16:0 32 4] [10] 0 0
r 16.042190070 _4_ RTR  --- 18 cbr 532 [13a 4 0 800] ------- [0:0 16:0 32 4] [10] 1 0
SFf 16.042190070 _4_ 18 [0 -> 16] 1 to 10
f 16.042190070 _4_ RTR  --- 18 cbr 532 [13a 4 0 800] ------- [0:0 16:0 31 10] [10] 1 0
r 16.048044070 _10_ RTR  --- 18 cbr 532 [13a a 4 800] ------- [0:0 16:0 31 10] [10] 2 0
SFf 16.048044070 _10_ 18 [0 -> 16] 1 to 16
f 16.048044070 _10_ RTR  --- 18 cbr 532 [13a a 4 800] ------- [0:0 16:0 30 16] [10] 2 0
r 16.054038070 _16_ RTR  --- 18 cbr 532 [13a 10 a 800] ------- [0:0 16:0 30 16] [10] 3 0
r 16.054038070 _16_ AGT  --- 18 cbr 512 [13a 10 a 800] ------- [0:0 16:0 30 16] [10] 3 0
s 16.157865372 _0_ AGT  --- 19 cbr 512 [0 0 0 0] ------- [0:0 16:0 32 0] [11] 0 0