n -t * -s 0  -x 100 -y 0 -Z 0 -z 30  -v circle -c black
n -t * -s 1  -x 300 -y 0 -Z 0 -z 30  -v circle -c black
n -t * -s 2  -x 500 -y 0 -Z 0 -z 30  -v circle -c black
n -t * -s 3  -x 100 -y 100 -Z 0 -z 30  -v circle -c black
n -t * -s 4  -x 300 -y 100 -Z 0 -z 30  -v circle -c black
n -t * -s 5  -x 500 -y 100 -Z 0 -z 30  -v circle -c black
n -t * -s 6  -x 100 -y 200 -Z 0 -z 30  -v circle -c black
n -t * -s 7  -x 300 -y 200 -Z 0 -z 30  -v circle -c black
n -t * -s 8  -x 500 -y 200 -Z 0 -z 30  -v circle -c black
n -t * -s 9  -x 100 -y 300 -Z 0 -z 30  -v circle -c black
n -t * -s 10  -x 300 -y 300 -Z 0 -z 30  -v circle -c black
n -t * -s 11  -x 500 -y 300 -Z 0 -z 30  -v circle -c black
n -t * -s 12  -x 100 -y 400 -Z 0 -z 30  -v circle -c black
n -t * -s 13  -x 300 -y 400 -Z 0 -z 30  -v circle -c black
n -t * -s 14  -x 500 -y 400 -Z 0 -z 30  -v circle -c black
n -t * -s 15  -x 100 -y 500 -Z 0 -z 30  -v circle -c black
n -t * -s 16  -x 300 -y 500 -Z 0 -z 30  -v circle -c black
n -t * -s 17  -x 500 -y 500 -Z 0 -z 30  -v circle -c black
V -t * -v 1.0a5 -a 0
W -t * -x 500 -y 500
A -t * -n 1 -p 0 -o 0xffffffff -c 31 -a 1
A -t * -h 1 -m 2147483647 -s 0
n -t 13.000000 -s 5 -x 500.000000 -y 100.000000 -U -2.288271 -V 1.940056 -T 160.820120
+ -t 15.000000000 -s 0 -d -1 -p cbr -e 512 -c 2 -a 0 -i 0 -k AGT 
- -t 15.000000000 -s 0 -d -1 -p cbr -e 512 -c 2 -a 0 -i 0 -k AGT
h -t 15.000000000 -s 0 -d -1 -p cbr -e 512 -c 2 -a 0 -i 0 -k AGT
+ -t 15.007183001 -s 0 -d -1 -p DSR -e 32 -c 2 -a 0 -i 1 -k RTR 
- -t 15.007183001 -s 0 -d -1 -p DSR -e 32 -c 2 -a 0 -i 1 -k RTR
h -t 15.007183001 -s 0 -d -1 -p DSR -e 32 -c 2 -a 0 -i 1 -k RTR
+ -t 15.041606981 -s 0 -d -1 -p DSR -e 32 -c 2 -a 0 -i 2 -k RTR 
- -t 15.041606981 -s 0 -d -1 -p DSR -e 32 -c 2 -a 0 -i 2 -k RTR
h -t 15.041606981 -s 0 -d -1 -p DSR -e 32 -c 2 -a 0 -i 2 -k RTR
+ -t 15.048559455 -s 1 -d -1 -p DSR -e 48 -c 2 -a 0 -i 2 -k RTR 
- -t 15.048559455 -s 1 -d -1 -p DSR -e 48 -c 2 -a 0 -i 2 -k RTR
h -t 15.048559455 -s 1 -d -1 -p DSR -e 48 -c 2 -a 0 -i 2 -k RTR
+ -t 15.048633514 -s 4 -d -1 -p DSR -e 48 -c 2 -a 0 -i 2 -k RTR 
- -t 15.048633514 -s 4 -d -1 -p DSR -e 48 -c 2 -a 0 -i 2 -k RTR
h -t 15.048633514 -s 4 -d -1 -p DSR -e 48 -c 2 -a 0 -i 2 -k RTR
+ -t 15.051977768 -s 3 -d -1 -p DSR -e 48 -c 2 -a 0 -i 2 -k RTR 
- -t 15.051977768 -s 3 -d -1 -p DSR -e 48 -c 2 -a 0 -i 2 -k RTR
h -t 15.051977768 -s 3 -d -1 -p DSR -e 48 -c 2 -a 0 -i 2 -k RTR
+ -t 15.052177668 -s 6 -d -1 -p DSR -e 48 -c 2 -a 0 -i 2 -k RTR 
- -t 15.052177668 -s 6 -d -1 -p DSR -e 48 -c 2 -a 0 -i 2 -k RTR
h -t 15.052177668 -s 6 -d -1 -p DSR -e 48 -c 2 -a 0 -i 2 -k RTR
+ -t 15.052192356 -s 7 -d -1 -p DSR -e 68 -c 2 -a 0 -i 2 -k RTR 
- -t 15.052192356 -s 7 -d -1 -p DSR -e 68 -c 2 -a 0 -i 2 -k RTR
h -t 15.052192356 -s 7 -d -1 -p DSR -e 68 -c 2 -a 0 -i 2 -k RTR
+ -t 15.053365707 -s 10 -d -1 -p DSR -e 68 -c 2 -a 0 -i 2 -k RTR 
- -t 15.053365707 -s 10 -d -1 -p DSR -e 68 -c 2 -a 0 -i 2 -k RTR
h -t 15.053365707 -s 10 -d -1 -p DSR -e 68 -c 2 -a 0 -i 2 -k RTR
+ -t 15.053653080 -s 11 -d -1 -p DSR -e 92 -c 2 -a 0 -i 2 -k RTR 
- -t 15.053653080 -s 11 -d -1 -p DSR -e 92 -c 2 -a 0 -i 2 -k RTR
h -t 15.053653080 -s 11 -d -1 -p DSR -e 92 -c 2 -a 0 -i 2 -k RTR
+ -t 15.054249590 -s 8 -d -1 -p DSR -e 68 -c 2 -a 0 -i 2 -k RTR 
- -t 15.054249590 -s 8 -d -1 -p DSR -e 68 -c 2 -a 0 -i 2 -k RTR
h -t 15.054249590 -s 8 -d -1 -p DSR -e 68 -c 2 -a 0 -i 2 -k RTR
+ -t 15.057247533 -s 9 -d -1 -p DSR -e 92 -c 2 -a 0 -i 2 -k RTR 
- -t 15.057247533 -s 9 -d -1 -p DSR -e 92 -c 2 -a 0 -i 2 -k RTR
h -t 15.057247533 -s 9 -d -1 -p DSR -e 92 -c 2 -a 0 -i 2 -k RTR
+ -t 15.058687367 -s 5 -d -1 -p DSR -e 68 -c 2 -a 0 -i 2 -k RTR 
- -t 15.058687367 -s 5 -d -1 -p DSR -e 68 -c 2 -a 0 -i 2 -k RTR
h -t 15.058687367 -s 5 -d -1 -p DSR -e 68 -c 2 -a 0 -i 2 -k RTR
+ -t 15.059182493 -s 2 -d -1 -p DSR -e 68 -c 2 -a 0 -i 2 -k RTR 
- -t 15.059182493 -s 2 -d -1 -p DSR -e 68 -c 2 -a 0 -i 2 -k RTR
h -t 15.059182493 -s 2 -d -1 -p DSR -e 68 -c 2 -a 0 -i 2 -k RTR
+ -t 15.059261336 -s 17 -d -1 -p DSR -e 120 -c 2 -a 0 -i 2 -k RTR 
- -t 15.059261336 -s 17 -d -1 -p DSR -e 120 -c 2 -a 0 -i 2 -k RTR
h -t 15.059261336 -s 17 -d -1 -p DSR -e 120 -c 2 -a 0 -i 2 -k RTR
+ -t 15.059555518 -s 13 -d -1 -p DSR -e 92 -c 2 -a 0 -i 2 -k RTR 
- -t 15.059555518 -s 13 -d -1 -p DSR -e 92 -c 2 -a 0 -i 2 -k RTR
h -t 15.059555518 -s 13 -d -1 -p DSR -e 92 -c 2 -a 0 -i 2 -k RTR
+ -t 15.061719521 -s 14 -d -1 -p DSR -e 92 -c 2 -a 0 -i 2 -k RTR 
- -t 15.061719521 -s 14 -d -1 -p DSR -e 92 -c 2 -a 0 -i 2 -k RTR
h -t 15.061719521 -s 14 -d -1 -p DSR -e 92 -c 2 -a 0 -i 2 -k RTR
+ -t 15.064026010 -s 12 -d -1 -p DSR -e 68 -c 2 -a 0 -i 2 -k RTR 
- -t 15.064026010 -s 12 -d -1 -p DSR -e 68 -c 2 -a 0 -i 2 -k RTR
h -t 15.064026010 -s 12 -d -1 -p DSR -e 68 -c 2 -a 0 -i 2 -k RTR
+ -t 15.065102618 -s 15 -d -1 -p DSR -e 120 -c 2 -a 0 -i 2 -k RTR 
- -t 15.065102618 -s 15 -d -1 -p DSR -e 120 -c 2 -a 0 -i 2 -k RTR
h -t 15.065102618 -s 15 -d -1 -p DSR -e 120 -c 2 -a 0 -i 2 -k RTR
+ -t 15.065593653 -s 16 -d 10 -p DSR -e 60 -c 2 -a 0 -i 3 -k RTR 
- -t 15.065593653 -s 16 -d 10 -p DSR -e 60 -c 2 -a 0 -i 3 -k RTR
h -t 15.065593653 -s 16 -d 10 -p DSR -e 60 -c 2 -a 0 -i 3 -k RTR
+ -t 15.068181154 -s 16 -d 13 -p DSR -e 68 -c 2 -a 0 -i 4 -k RTR 
- -t 15.068181154 -s 16 -d 13 -p DSR -e 68 -c 2 -a 0 -i 4 -k RTR
h -t 15.068181154 -s 16 -d 13 -p DSR -e 68 -c 2 -a 0 -i 4 -k RTR
+ -t 15.068749416 -s 10 -d 4 -p DSR -e 60 -c 2 -a 0 -i 3 -k RTR 
- -t 15.068749416 -s 10 -d 4 -p DSR -e 60 -c 2 -a 0 -i 3 -k RTR
h -t 15.068749416 -s 10 -d 4 -p DSR -e 60 -c 2 -a 0 -i 3 -k RTR
+ -t 15.071374406 -s 0 -d -1 -p cbr -e 512 -c 2 -a 0 -i 8 -k AGT 
- -t 15.071374406 -s 0 -d -1 -p cbr -e 512 -c 2 -a 0 -i 8 -k AGT
h -t 15.071374406 -s 0 -d -1 -p cbr -e 512 -c 2 -a 0 -i 8 -k AGT
+ -t 15.073072739 -s 16 -d 14 -p DSR -e 68 -c 2 -a 0 -i 7 -k RTR 
- -t 15.073072739 -s 16 -d 14 -p DSR -e 68 -c 2 -a 0 -i 7 -k RTR
h -t 15.073072739 -s 16 -d 14 -p DSR -e 68 -c 2 -a 0 -i 7 -k RTR
+ -t 15.073194480 -s 16 -d 12 -p DSR -e 60 -c 2 -a 0 -i 5 -k RTR 
- -t 15.073194480 -s 16 -d 12 -p DSR -e 60 -c 2 -a 0 -i 5 -k RTR
h -t 15.073194480 -s 16 -d 12 -p DSR -e 60 -c 2 -a 0 -i 5 -k RTR
+ -t 15.073820834 -s 16 -d 15 -p DSR -e 76 -c 2 -a 0 -i 6 -k RTR 
- -t 15.073820834 -s 16 -d 15 -p DSR -e 76 -c 2 -a 0 -i 6 -k RTR
h -t 15.073820834 -s 16 -d 15 -p DSR -e 76 -c 2 -a 0 -i 6 -k RTR
+ -t 15.074144162 -s 13 -d 7 -p DSR -e 68 -c 2 -a 0 -i 4 -k RTR 
- -t 15.074144162 -s 13 -d 7 -p DSR -e 68 -c 2 -a 0 -i 4 -k RTR
h -t 15.074144162 -s 13 -d 7 -p DSR -e 68 -c 2 -a 0 -i 4 -k RTR
+ -t 15.076302495 -s 4 -d 0 -p DSR -e 60 -c 2 -a 0 -i 3 -k RTR 
- -t 15.076302495 -s 4 -d 0 -p DSR -e 60 -c 2 -a 0 -i 3 -k RTR
h -t 15.076302495 -s 4 -d 0 -p DSR -e 60 -c 2 -a 0 -i 3 -k RTR
+ -t 15.078820731 -s 0 -d 4 -p cbr -e 556 -c 2 -a 0 -i 0 -k RTR 
- -t 15.078820731 -s 0 -d 4 -p cbr -e 556 -c 2 -a 0 -i 0 -k RTR
h -t 15.078820731 -s 0 -d 4 -p cbr -e 556 -c 2 -a 0 -i 0 -k RTR
+ -t 15.085106967 -s 4 -d 10 -p cbr -e 556 -c 2 -a 0 -i 0 -k RTR 
- -t 15.085106967 -s 4 -d 10 -p cbr -e 556 -c 2 -a 0 -i 0 -k RTR
h -t 15.085106967 -s 4 -d 10 -p cbr -e 556 -c 2 -a 0 -i 0 -k RTR
+ -t 15.087573967 -s 7 -d 1 -p DSR -e 68 -c 2 -a 0 -i 4 -k RTR 
- -t 15.087573967 -s 7 -d 1 -p DSR -e 68 -c 2 -a 0 -i 4 -k RTR
h -t 15.087573967 -s 7 -d 1 -p DSR -e 68 -c 2 -a 0 -i 4 -k RTR
+ -t 15.093570301 -s 10 -d 16 -p cbr -e 556 -c 2 -a 0 -i 0 -k RTR 
- -t 15.093570301 -s 10 -d 16 -p cbr -e 556 -c 2 -a 0 -i 0 -k RTR
h -t 15.093570301 -s 10 -d 16 -p cbr -e 556 -c 2 -a 0 -i 0 -k RTR
+ -t 15.095612634 -s 1 -d 0 -p DSR -e 68 -c 2 -a 0 -i 4 -k RTR 
- -t 15.095612634 -s 1 -d 0 -p DSR -e 68 -c 2 -a 0 -i 4 -k RTR
h -t 15.095612634 -s 1 -d 0 -p DSR -e 68 -c 2 -a 0 -i 4 -k RTR
+ -t 15.100466429 -s 15 -d 13 -p DSR -e 76 -c 2 -a 0 -i 6 -k RTR 
- -t 15.100466429 -s 15 -d 13 -p DSR -e 76 -c 2 -a 0 -i 6 -k RTR
h -t 15.100466429 -s 15 -d 13 -p DSR -e 76 -c 2 -a 0 -i 6 -k RTR
+ -t 15.102652665 -s 13 -d 7 -p DSR -e 76 -c 2 -a 0 -i 6 -k RTR 
- -t 15.102652665 -s 13 -d 7 -p DSR -e 76 -c 2 -a 0 -i 6 -k RTR
h -t 15.102652665 -s 13 -d 7 -p DSR -e 76 -c 2 -a 0 -i 6 -k RTR
+ -t 15.104718665 -s 7 -d 1 -p DSR -e 76 -c 2 -a 0 -i 6 -k RTR 
- -t 15.104718665 -s 7 -d 1 -p DSR -e 76 -c 2 -a 0 -i 6 -k RTR
h -t 15.104718665 -s 7 -d 1 -p DSR -e 76 -c 2 -a 0 -i 6 -k RTR
+ -t 15.106824665 -s 1 -d 0 -p DSR -e 76 -c 2 -a 0 -i 6 -k RTR 
- -t 15.106824665 -s 1 -d 0 -p DSR -e 76 -c 2 -a 0 -i 6 -k RTR
h -t 15.106824665 -s 1 -d 0 -p DSR -e 76 -c 2 -a 0 -i 6 -k RTR
+ -t 15.108820731 -s 0 -d 4 -p cbr -e 556 -c 2 -a 0 -i 8 -k RTR 
- -t 15.108820731 -s 0 -d 4 -p cbr -e 556 -c 2 -a 0 -i 8 -k RTR
h -t 15.108820731 -s 0 -d 4 -p cbr -e 556 -c 2 -a 0 -i 8 -k RTR
+ -t 15.109228568 -s 12 -d 6 -p DSR -e 60 -c 2 -a 0 -i 5 -k RTR 
- -t 15.109228568 -s 12 -d 6 -p DSR -e 60 -c 2 -a 0 -i 5 -k RTR
h -t 15.109228568 -s 12 -d 6 -p DSR -e 60 -c 2 -a 0 -i 5 -k RTR
r -t 15.115255313 -s 16 -d 16 -p cbr -e 512 -c 2 -a 0 -i 0 -k AGT
+ -t 15.117314058 -s 6 -d 0 -p DSR -e 60 -c 2 -a 0 -i 5 -k RTR 
- -t 15.117314058 -s 6 -d 0 -p DSR -e 60 -c 2 -a 0 -i 5 -k RTR
h -t 15.117314058 -s 6 -d 0 -p DSR -e 60 -c 2 -a 0 -i 5 -k RTR
+ -t 15.127814571 -s 4 -d 10 -p cbr -e 556 -c 2 -a 0 -i 8 -k RTR 
- -t 15.127814571 -s 4 -d 10 -p cbr -e 556 -c 2 -a 0 -i 8 -k RTR
h -t 15.127814571 -s 4 -d 10 -p cbr -e 556 -c 2 -a 0 -i 8 -k RTR
+ -t 15.133900571 -s 10 -d 16 -p cbr -e 556 -c 2 -a 0 -i 8 -k RTR 
- -t 15.133900571 -s 10 -d 16 -p cbr -e 556 -c 2 -a 0 -i 8 -k RTR
h -t 15.133900571 -s 10 -d 16 -p cbr -e 556 -c 2 -a 0 -i 8 -k RTR
+ -t 15.136073473 -s 14 -d 10 -p DSR -e 68 -c 2 -a 0 -i 7 -k RTR 
- -t 15.136073473 -s 14 -d 10 -p DSR -e 68 -c 2 -a 0 -i 7 -k RTR
h -t 15.136073473 -s 14 -d 10 -p DSR -e 68 -c 2 -a 0 -i 7 -k RTR
r -t 15.142000219 -s 16 -d 16 -p cbr -e 512 -c 2 -a 0 -i 8 -k AGT
+ -t 15.144223200 -s 10 -d 4 -p DSR -e 68 -c 2 -a 0 -i 7 -k RTR 
- -t 15.144223200 -s 10 -d 4 -p DSR -e 68 -c 2 -a 0 -i 7 -k RTR
h -t 15.144223200 -s 10 -d 4 -p DSR -e 68 -c 2 -a 0 -i 7 -k RTR
+ -t 15.146505200 -s 4 -d 0 -p DSR -e 68 -c 2 -a 0 -i 7 -k RTR 
- -t 15.146505200 -s 4 -d 0 -p DSR -e 68 -c 2 -a 0 -i 7 -k RTR
h -t 15.146505200 -s 4 -d 0 -p DSR -e 68 -c 2 -a 0 -i 7 -k RTR
+ -t 15.160048896 -s 0 -d -1 -p cbr -e 512 -c 2 -a 0 -i 10 -k AGT 
- -t 15.160048896 -s 0 -d -1 -p cbr -e 512 -c 2 -a 0 -i 10 -k AGT
h -t 15.160048896 -s 0 -d -1 -p cbr -e 512 -c 2 -a 0 -i 10 -k AGT
+ -t 15.160048896 -s 0 -d 4 -p cbr -e 556 -c 2 -a 0 -i 10 -k RTR 
- -t 15.160048896 -s 0 -d 4 -p cbr -e 556 -c 2 -a 0 -i 10 -k RTR
h -t 15.160048896 -s 0 -d 4 -p cbr -e 556 -c 2 -a 0 -i 10 -k RTR
+ -t 15.165771132 -s 4 -d 10 -p cbr -e 556 -c 2 -a 0 -i 10 -k RTR 
- -t 15.165771132 -s 4 -d 10 -p cbr -e 556 -c 2 -a 0 -i 10 -k RTR
h -t 15.165771132 -s 4 -d 10 -p cbr -e 556 -c 2 -a 0 -i 10 -k RTR
+ -t 15.171937132 -s 10 -d 16 -p cbr -e 556 -c 2 -a 0 -i 10 -k RTR 
- -t 15.171937132 -s 10 -d 16 -p cbr -e 556 -c 2 -a 0 -i 10 -k RTR
h -t 15.171937132 -s 10 -d 16 -p cbr -e 556 -c 2 -a 0 -i 10 -k RTR
r -t 15.178363132 -s 16 -d 16 -p cbr -e 512 -c 2 -a 0 -i 10 -k AGT
+ -t 15.307362110 -s 0 -d -1 -p cbr -e 512 -c 2 -a 0 -i 11 -k AGT 
- -t 15.307362110 -s 0 -d -1 -p cbr -e 512 -c 2 -a 0 -i 11 -k AGT
h -t 15.307362110 -s 0 -d -1 -p cbr -e 512 -c 2 -a 0 -i 11 -k AGT
+ -t 15.307362110 -s 0 -d 4 -p cbr -e 532 -c 2 -a 0 -i 11 -k RTR 
- -t 15.307362110 -s 0 -d 4 -p cbr -e 532 -c 2 -a 0 -i 11 -k RTR
h -t 15.307362110 -s 0 -d 4 -p cbr -e 532 -c 2 -a 0 -i 11 -k RTR
+ -t 15.313312346 -s 4 -d 10 -p cbr -e 532 -c 2 -a 0 -i 11 -k RTR 
- -t 15.313312346 -s 4 -d 10 -p cbr -e 532 -c 2 -a 0 -i 11 -k RTR
h -t 15.313312346 -s 4 -d 10 -p cbr -e 532 -c 2 -a 0 -i 11 -k RTR
+ -t 15.319606346 -s 10 -d 16 -p cbr -e 532 -c 2 -a 0 -i 11 -k RTR 
- -t 15.319606346 -s 10 -d 16 -p cbr -e 532 -c 2 -a 0 -i 11 -k RTR
h -t 15.319606346 -s 10 -d 16 -p cbr -e 532 -c 2 -a 0 -i 11 -k RTR
r -t 15.325340346 -s 16 -d 16 -p cbr -e 512 -c 2 -a 0 -i 11 -k AGT
+ -t 15.400204664 -s 0 -d -1 -p cbr -e 512 -c 2 -a 0 -i 12 -k AGT 
- -t 15.400204664 -s 0 -d -1 -p cbr -e 512 -c 2 -a 0 -i 12 -k AGT
h -t 15.400204664 -s 0 -d -1 -p cbr -e 512 -c 2 -a 0 -i 12 -k AGT
+ -t 15.400204664 -s 0 -d 4 -p cbr -e 532 -c 2 -a 0 -i 12 -k RTR 
- -t 15.400204664 -s 0 -d 4 -p cbr -e 532 -c 2 -a 0 -i 12 -k RTR
h -t 15.400204664 -s 0 -d 4 -p cbr -e 532 -c 2 -a 0 -i 12 -k RTR
+ -t 15.405994901 -s 4 -d 10 -p cbr -e 532 -c 2 -a 0 -i 12 -k RTR 
- -t 15.405994901 -s 4 -d 10 -p cbr -e 532 -c 2 -a 0 -i 12 -k RTR
h -t 15.405994901 -s 4 -d 10 -p cbr -e 532 -c 2 -a 0 -i 12 -k RTR
+ -t 15.412028901 -s 10 -d 16 -p cbr -e 532 -c 2 -a 0 -i 12 -k RTR 
- -t 15.412028901 -s 10 -d 16 -p cbr -e 532 -c 2 -a 0 -i 12 -k RTR
h -t 15.412028901 -s 10 -d 16 -p cbr -e 532 -c 2 -a 0 -i 12 -k RTR
r -t 15.417802901 -s 16 -d 16 -p cbr -e 512 -c 2 -a 0 -i 12 -k AGT
+ -t 15.538941182 -s 0 -d -1 -p cbr -e 512 -c 2 -a 0 -i 13 -k AGT 
- -t 15.538941182 -s 0 -d -1 -p cbr -e 512 -c 2 -a 0 -i 13 -k AGT
h -t 15.538941182 -s 0 -d -1 -p cbr -e 512 -c 2 -a 0 -i 13 -k AGT
+ -t 15.538941182 -s 0 -d 4 -p cbr -e 532 -c 2 -a 0 -i 13 -k RTR 
- -t 15.538941182 -s 0 -d 4 -p cbr -e 532 -c 2 -a 0 -i 13 -k RTR
h -t 15.538941182 -s 0 -d 4 -p cbr -e 532 -c 2 -a 0 -i 13 -k RTR
+ -t 15.544411418 -s 4 -d 10 -p cbr -e 532 -c 2 -a 0 -i 13 -k RTR 
- -t 15.544411418 -s 4 -d 10 -p cbr -e 532 -c 2 -a 0 -i 13 -k RTR
h -t 15.544411418 -s 4 -d 10 -p cbr -e 532 -c 2 -a 0 -i 13 -k RTR
+ -t 15.550605418 -s 10 -d 16 -p cbr -e 532 -c 2 -a 0 -i 13 -k RTR 
- -t 15.550605418 -s 10 -d 16 -p cbr -e 532 -c 2 -a 0 -i 13 -k RTR
h -t 15.550605418 -s 10 -d 16 -p cbr -e 532 -c 2 -a 0 -i 13 -k RTR
r -t 15.556739418 -s 16 -d 16 -p cbr -e 512 -c 2 -a 0 -i 13 -k AGT
+ -t 15.649699235 -s 0 -d -1 -p cbr -e 512 -c 2 -a 0 -i 14 -k AGT 
- -t 15.649699235 -s 0 -d -1 -p cbr -e 512 -c 2 -a 0 -i 14 -k AGT
h -t 15.649699235 -s 0 -d -1 -p cbr -e 512 -c 2 -a 0 -i 14 -k AGT
+ -t 15.649699235 -s 0 -d 4 -p cbr -e 532 -c 2 -a 0 -i 14 -k RTR 
- -t 15.649699235 -s 0 -d 4 -p cbr -e 532 -c 2 -a 0 -i 14 -k RTR
h -t 15.649699235 -s 0 -d 4 -p cbr -e 532 -c 2 -a 0 -i 14 -k RTR
+ -t 15.655469471 -s 4 -d 10 -p cbr -e 532 -c 2 -a 0 -i 14 -k RTR 
- -t 15.655469471 -s 4 -d 10 -p cbr -e 532 -c 2 -a 0 -i 14 -k RTR
h -t 15.655469471 -s 4 -d 10 -p cbr -e 532 -c 2 -a 0 -i 14 -k RTR
+ -t 15.661263471 -s 10 -d 16 -p cbr -e 532 -c 2 -a 0 -i 14 -k RTR 
- -t 15.661263471 -s 10 -d 16 -p cbr -e 532 -c 2 -a 0 -i 14 -k RTR
h -t 15.661263471 -s 10 -d 16 -p cbr -e 532 -c 2 -a 0 -i 14 -k RTR
r -t 15.667437471 -s 16 -d 16 -p cbr -e 512 -c 2 -a 0 -i 14 -k AGT
+ -t 15.795880692 -s 0 -d -1 -p cbr -e 512 -c 2 -a 0 -i 15 -k AGT 
- -t 15.795880692 -s 0 -d -1 -p cbr -e 512 -c 2 -a 0 -i 15 -k AGT
h -t 15.795880692 -s 0 -d -1 -p cbr -e 512 -c 2 -a 0 -i 15 -k AGT
+ -t 15.795880692 -s 0 -d 4 -p cbr -e 532 -c 2 -a 0 -i 15 -k RTR 
- -t 15.795880692 -s 0 -d 4 -p cbr -e 532 -c 2 -a 0 -i 15 -k RTR
h -t 15.795880692 -s 0 -d 4 -p cbr -e 532 -c 2 -a 0 -i 15 -k RTR
+ -t 15.801690928 -s 4 -d 10 -p cbr -e 532 -c 2 -a 0 -i 15 -k RTR 
- -t 15.801690928 -s 4 -d 10 -p cbr -e 532 -c 2 -a 0 -i 15 -k RTR
h -t 15.801690928 -s 4 -d 10 -p cbr -e 532 -c 2 -a 0 -i 15 -k RTR
+ -t 15.807804928 -s 10 -d 16 -p cbr -e 532 -c 2 -a 0 -i 15 -k RTR 
- -t 15.807804928 -s 10 -d 16 -p cbr -e 532 -c 2 -a 0 -i 15 -k RTR
h -t 15.807804928 -s 10 -d 16 -p cbr -e 532 -c 2 -a 0 -i 15 -k RTR
r -t 15.813938928 -s 16 -d 16 -p cbr -e 512 -c 2 -a 0 -i 15 -k AGT
+ -t 15.860008462 -s 0 -d -1 -p cbr -e 512 -c 2 -a 0 -i 16 -k AGT 
- -t 15.860008462 -s 0 -d -1 -p cbr -e 512 -c 2 -a 0 -i 16 -k AGT
h -t 15.860008462 -s 0 -d -1 -p cbr -e 512 -c 2 -a 0 -i 16 -k AGT
+ -t 15.860008462 -s 0 -d 4 -p cbr -e 532 -c 2 -a 0 -i 16 -k RTR 
- -t 15.860008462 -s 0 -d 4 -p cbr -e 532 -c 2 -a 0 -i 16 -k RTR
h -t 15.860008462 -s 0 -d 4 -p cbr -e 532 -c 2 -a 0 -i 16 -k RTR
+ -t 15.865758698 -s 4 -d 10 -p cbr -e 532 -c 2 -a 0 -i 16 -k RTR 
- -t 15.865758698 -s 4 -d 10 -p cbr -e 532 -c 2 -a 0 -i 16 -k RTR
h -t 15.865758698 -s 4 -d 10 -p cbr -e 532 -c 2 -a 0 -i 16 -k RTR
+ -t 15.871592698 -s 10 -d 16 -p cbr -e 532 -c 2 -a 0 -i 16 -k RTR 
- -t 15.871592698 -s 10 -d 16 -p cbr -e 532 -c 2 -a 0 -i 16 -k RTR
h -t 15.871592698 -s 10 -d 16 -p cbr -e 532 -c 2 -a 0 -i 16 -k RTR
r -t 15.877766698 -s 16 -d 16 -p cbr -e 512 -c 2 -a 0 -i 16 -k AGT
+ -t 15.975432813 -s 0 -d -1 -p cbr -e 512 -c 2 -a 0 -i 17 -k AGT 
- -t 15.975432813 -s 0 -d -1 -p cbr -e 512 -c 2 -a 0 -i 17 -k AGT
h -t 15.975432813 -s 0 -d -1 -p cbr -e 512 -c 2 -a 0 -i 17 -k AGT
+ -t 15.975432813 -s 0 -d 4 -p cbr -e 532 -c 2 -a 0 -i 17 -k RTR 
- -t 15.975432813 -s 0 -d 4 -p cbr -e 532 -c 2 -a 0 -i 17 -k RTR
h -t 15.975432813 -s 0 -d 4 -p cbr -e 532 -c 2 -a 0 -i 17 -k RTR
+ -t 15.981483049 -s 4 -d 10 -p cbr -e 532 -c 2 -a 0 -i 17 -k RTR 
- -t 15.981483049 -s 4 -d 10 -p cbr -e 532 -c 2 -a 0 -i 17 -k RTR
h -t 15.981483049 -s 4 -d 10 -p cbr -e 532 -c 2 -a 0 -i 17 -k RTR
+ -t 15.987477049 -s 10 -d 16 -p cbr -e 532 -c 2 -a 0 -i 17 -k RTR 
- -t 15.987477049 -s 10 -d 16 -p cbr -e 532 -c 2 -a 0 -i 17 -k RTR
h -t 15.987477049 -s 10 -d 16 -p cbr -e 532 -c 2 -a 0 -i 17 -k RTR
r -t 15.993611049 -s 16 -d 16 -p cbr -e 512 -c 2 -a 0 -i 17 -k AGT
+ -t 16.036199834 -s 0 -d -1 -p cbr -e 512 -c 2 -a 0 -i 18 -k AGT 
- -t 16.036199834 -s 0 -d -1 -p cbr -e 512 -c 2 -a 0 -i 18 -k AGT
h -t 16.036199834 -s 0 -d -1 -p cbr -e 512 -c 2 -a 0 -i 18 -k AGT
+ -t 16.036199834 -s 0 -d 4 -p cbr -e 532 -c 2 -a 0 -i 18 -k RTR 
- -t 16.036199834 -s 0 -d 4 -p cbr -e 532 -c 2 -a 0 -i 18 -k RTR
h -t 16.036199834 -s 0 -d 4 -p cbr -e 532 -c 2 -a 0 -i 18 -k RTR
+ -t 16.042190070 -s 4 -d 10 -p cbr -e 532 -c 2 -a 0 -i 18 -k RTR 
- -t 16.042190070 -s 4 -d 10 -p cbr -e 532 -c 2 -a 0 -i 18 -k RTR
h -t 16.042190070 -s 4 -d 10 -p cbr -e 532 -c 2 -a 0 -i 18 -k RTR
+ -t 16.048044070 -s 10 -d 16 -p cbr -e 532 -c 2 -a 0 -i 18 -k RTR 
- -t 16.048044070 -s 10 -d 16 -p cbr -e 532 -c 2 -a 0 -i 18 -k RTR
h -t 16.048044070 -s 10 -d 16 -p cbr -e 532 -c 2 -a 0 -i 18 -k RTR
r -t 16.054038070 -s 16 -d 16 -p cbr -e 512 -c 2 -a 0 -i 18 -k AGT
+ -t 16.157865372 -s 0 -d -1 -p cbr -e 512 -c 2 -a 0 -i 19 -k AGT 
- -t 16.157865372 -s 0 -d -1 -p cbr -e 512 -c 2 -a 0 -i 19 -k AGT
h -t 16.157865372 -s 0 -d -1 -p cbr -e 512 -c 2 -a 0 -i 19 -k AGT
+ -t 16.157865372 -s 0 -d 4 -p cbr -e 532 -c 2 -a 0 -i 19 -k RTR 
- -t 16.157865372 -s 0 -d 4 -p cbr -e 532 -c 2 -a 0 -i 19 -k RTR
h -t 16.157865372 -s 0 -d 4 -p cbr -e 532 -c 2 -a 0 -i 19 -k RTR
+ -t 16.163475608 -s 4 -d 10 -p cbr -e 532 -c 2 -a 0 -i 19 -k RTR 
- -t 16.163475608 -s 4 -d 10 -p cbr -e 532 -c 2 -a 0 -i 19 -k RTR
h -t 16.163475608 -s 4 -d 10 -p cbr -e 532 -c 2 -a 0 -i 19 -k RTR
+ -t 16.169729608 -s 10 -d 16 -p cbr -e 532 -c 2 -a 0 -i 19 -k RTR 
- -t 16.169729608 -s 10 -d 16 -p cbr -e 532 -c 2 -a 0 -i 19 -k RTR
h -t 16.169729608 -s 10 -d 16 -p cbr -e 532 -c 2 -a 0 -i 19 -k RTR
r -t 16.175503608 -s 16 -d 16 -p cbr -e 512 -c 2 -a 0 -i 19 -k AGT
+ -t 16.247352752 -s 0 -d -1 -p cbr -e 512 -c 2 -a 0 -i 20 -k AGT 
- -t 16.247352752 -s 0 -d -1 -p cbr -e 512 -c 2 -a 0 -i 20 -k AGT
h -t 16.247352752 -s 0 -d -1 -p cbr -e 512 -c 2 -a 0 -i 20 -k AGT
+ -t 16.247352752 -s 0 -d 4 -p cbr -e 532 -c 2 -a 0 -i 20 -k RTR 
- -t 16.247352752 -s 0 -d 4 -p cbr -e 532 -c 2 -a 0 -i 20 -k RTR
h -t 16.247352752 -s 0 -d 4 -p cbr -e 532 -c 2 -a 0 -i 20 -k RTR
+ -t 16.253242988 -s 4 -d 10 -p cbr -e 532 -c 2 -a 0 -i 20 -k RTR 
- -t 16.253242988 -s 4 -d 10 -p cbr -e 532 -c 2 -a 0 -i 20 -k RTR
h -t 16.253242988 -s 4 -d 10 -p cbr -e 532 -c 2 -a 0 -i 20 -k RTR
+ -t 16.259376988 -s 10 -d 16 -p cbr -e 532 -c 2 -a 0 -i 20 -k RTR 
- -t 16.259376988 -s 10 -d 16 -p cbr -e 532 -c 2 -a 0 -i 20 -k RTR
h -t 16.259376988 -s 10 -d 16 -p cbr -e 532 -c 2 -a 0 -i 20 -k RTR
r -t 16.265110988 -s 16 -d 16 -p cbr -e 512 -c 2 -a 0 -i 20 -k AGT
+ -t 16.306666117 -s 0 -d -1 -p cbr -e 512 -c 2 -a 0 -i 21 -k AGT 
- -t 16.306666117 -s 0 -d -1 -p cbr -e 512 -c 2 -a 0 -i 21 -k AGT
h -t 16.306666117 -s 0 -d -1 -p cbr -e 512 -c 2 -a 0 -i 21 -k AGT
+ -t 16.306666117 -s 0 -d 4 -p cbr -e 532 -c 2 -a 0 -i 21 -k RTR 
- -t 16.306666117 -s 0 -d 4 -p cbr -e 532 -c 2 -a 0 -i 21 -k RTR
h -t 16.306666117 -s 0 -d 4 -p cbr -e 532 -c 2 -a 0 -i 21 -k RTR
+ -t 16.312496353 -s 4 -d 10 -p cbr -e 532 -c 2 -a 0 -i 21 -k RTR 
- -t 16.312496353 -s 4 -d 10 -p cbr -e 532 -c 2 -a 0 -i 21 -k RTR
h -t 16.312496353 -s 4 -d 10 -p cbr -e 532 -c 2 -a 0 -i 21 -k RTR
+ -t 16.318230353 -s 10 -d 16 -p cbr -e 532 -c 2 -a 0 -i 21 -k RTR 
- -t 16.318230353 -s 10 -d 16 -p cbr -e 532 -c 2 -a 0 -i 21 -k RTR
h -t 16.318230353 -s 10 -d 16 -p cbr -e 532 -c 2 -a 0 -i 21 -k RTR
r -t 16.324344353 -s 16 -d 16 -p cbr -e 512 -c 2 -a 0 -i 21 -k AGT
+ -t 16.368062600 -s 0 -d -1 -p cbr -e 512 -c 2 -a 0 -i 22 -k AGT 
- -t 16.368062600 -s 0 -d -1 -p cbr -e 512 -c 2 -a 0 -i 22 -k AGT
h -t 16.368062600 -s 0 -d -1 -p cbr -e 512 -c 2 -a 0 -i 22 -k AGT
+ -t 16.368062600 -s 0 -d 4 -p cbr -e 532 -c 2 -a 0 -i 22 -k RTR 
- -t 16.368062600 -s 0 -d 4 -p cbr -e 532 -c 2 -a 0 -i 22 -k RTR
h -t 16.368062600 -s 0 -d 4 -p cbr -e 532 -c 2 -a 0 -i 22 -k RTR
+ -t 16.373552836 -s 4 -d 10 -p cbr -e 532 -c 2 -a 0 -i 22 -k RTR 
- -t 16.373552836 -s 4 -d 10 -p cbr -e 532 -c 2 -a 0 -i 22 -k RTR
h -t 16.373552836 -s 4 -d 10 -p cbr -e 532 -c 2 -a 0 -i 22 -k RTR
+ -t 16.379346836 -s 10 -d 16 -p cbr -e 532 -c 2 -a 0 -i 22 -k RTR 
- -t 16.379346836 -s 10 -d 16 -p cbr -e 532 -c 2 -a 0 -i 22 -k RTR
h -t 16.379346836 -s 10 -d 16 -p cbr -e 532 -c 2 -a 0 -i 22 -k RTR
r -t 16.385220836 -s 16 -d 16 -p cbr -e 512 -c 2 -a 0 -i 22 -k AGT
+ -t 16.477679763 -s 0 -d -1 -p cbr -e 512 -c 2 -a 0 -i 23 -k AGT 
- -t 16.477679763 -s 0 -d -1 -p cbr -e 512 -c 2 -a 0 -i 23 -k AGT
h -t 16.477679763 -s 0 -d -1 -p cbr -e 512 -c 2 -a 0 -i 23 -k AGT
+ -t 16.477679763 -s 0 -d 4 -p cbr -e 532 -c 2 -a 0 -i 23 -k RTR 
- -t 16.477679763 -s 0 -d 4 -p cbr -e 532 -c 2 -a 0 -i 23 -k RTR
h -t 16.477679763 -s 0 -d 4 -p cbr -e 532 -c 2 -a 0 -i 23 -k RTR
+ -t 16.483269999 -s 4 -d 10 -p cbr -e 532 -c 2 -a 0 -i 23 -k RTR 
- -t 16.483269999 -s 4 -d 10 -p cbr -e 532 -c 2 -a 0 -i 23 -k RTR
h -t 16.483269999 -s 4 -d 10 -p cbr -e 532 -c 2 -a 0 -i 23 -k RTR
+ -t 16.489303999 -s 10 -d 16 -p cbr -e 532 -c 2 -a 0 -i 23 -k RTR 
- -t 16.489303999 -s 10 -d 16 -p cbr -e 532 -c 2 -a 0 -i 23 -k RTR
h -t 16.489303999 -s 10 -d 16 -p cbr -e 532 -c 2 -a 0 -i 23 -k RTR
r -t 16.495577999 -s 16 -d 16 -p cbr -e 512 -c 2 -a 0 -i 23 -k AGT
+ -t 16.531658900 -s 0 -d -1 -p cbr -e 512 -c 2 -a 0 -i 24 -k AGT 
- -t 16.531658900 -s 0 -d -1 -p cbr -e 512 -c 2 -a 0 -i 24 -k AGT
h -t 16.531658900 -s 0 -d -1 -p cbr -e 512 -c 2 -a 0 -i 24 -k AGT
+ -t 16.531658900 -s 0 -d 4 -p cbr -e 532 -c 2 -a 0 -i 24 -k RTR 
- -t 16.531658900 -s 0 -d 4 -p cbr -e 532 -c 2 -a 0 -i 24 -k RTR
h -t 16.531658900 -s 0 -d 4 -p cbr -e 532 -c 2 -a 0 -i 24 -k RTR
+ -t 16.537489137 -s 4 -d 10 -p cbr -e 532 -c 2 -a 0 -i 24 -k RTR 
- -t 16.537489137 -s 4 -d 10 -p cbr -e 532 -c 2 -a 0 -i 24 -k RTR
h -t 16.537489137 -s 4 -d 10 -p cbr -e 532 -c 2 -a 0 -i 24 -k RTR
+ -t 16.543363137 -s 10 -d 16 -p cbr -e 532 -c 2 -a 0 -i 24 -k RTR 
- -t 16.543363137 -s 10 -d 16 -p cbr -e 532 -c 2 -a 0 -i 24 -k RTR
h -t 16.543363137 -s 10 -d 16 -p cbr -e 532 -c 2 -a 0 -i 24 -k RTR
r -t 16.549337137 -s 16 -d 16 -p cbr -e 512 -c 2 -a 0 -i 24 -k AGT
+ -t 16.622641465 -s 0 -d -1 -p cbr -e 512 -c 2 -a 0 -i 25 -k AGT 
- -t 16.622641465 -s 0 -d -1 -p cbr -e 512 -c 2 -a 0 -i 25 -k AGT
h -t 16.622641465 -s 0 -d -1 -p cbr -e 512 -c 2 -a 0 -i 25 -k AGT
+ -t 16.622641465 -s 0 -d 4 -p cbr -e 532 -c 2 -a 0 -i 25 -k RTR 
- -t 16.622641465 -s 0 -d 4 -p cbr -e 532 -c 2 -a 0 -i 25 -k RTR
h -t 16.622641465 -s 0 -d 4 -p cbr -e 532 -c 2 -a 0 -i 25 -k RTR
+ -t 16.628351701 -s 4 -d 10 -p cbr -e 532 -c 2 -a 0 -i 25 -k RTR 
- -t 16.628351701 -s 4 -d 10 -p cbr -e 532 -c 2 -a 0 -i 25 -k RTR
h -t 16.628351701 -s 4 -d 10 -p cbr -e 532 -c 2 -a 0 -i 25 -k RTR
+ -t 16.634205701 -s 10 -d 16 -p cbr -e 532 -c 2 -a 0 -i 25 -k RTR 
- -t 16.634205701 -s 10 -d 16 -p cbr -e 532 -c 2 -a 0 -i 25 -k RTR
h -t 16.634205701 -s 10 -d 16 -p cbr -e 532 -c 2 -a 0 -i 25 -k RTR
r -t 16.639959701 -s 16 -d 16 -p cbr -e 512 -c 2 -a 0 -i 25 -k AGT
+ -t 16.672733502 -s 0 -d -1 -p cbr -e 512 -c 2 -a 0 -i 26 -k AGT 
- -t 16.672733502 -s 0 -d -1 -p cbr -e 512 -c 2 -a 0 -i 26 -k AGT
h -t 16.672733502 -s 0 -d -1 -p cbr -e 512 -c 2 -a 0 -i 26 -k AGT
+ -t 16.672733502 -s 0 -d 4 -p cbr -e 532 -c 2 -a 0 -i 26 -k RTR 
- -t 16.672733502 -s 0 -d 4 -p cbr -e 532 -c 2 -a 0 -i 26 -k RTR
h -t 16.672733502 -s 0 -d 4 -p cbr -e 532 -c 2 -a 0 -i 26 -k RTR
+ -t 16.678643738 -s 4 -d 10 -p cbr -e 532 -c 2 -a 0 -i 26 -k RTR 
- -t 16.678643738 -s 4 -d 10 -p cbr -e 532 -c 2 -a 0 -i 26 -k RTR
h -t 16.678643738 -s 4 -d 10 -p cbr -e 532 -c 2 -a 0 -i 26 -k RTR
+ -t 16.684637738 -s 10 -d 16 -p cbr -e 532 -c 2 -a 0 -i 26 -k RTR 
- -t 16.684637738 -s 10 -d 16 -p cbr -e 532 -c 2 -a 0 -i 26 -k RTR
h -t 16.684637738 -s 10 -d 16 -p cbr -e 532 -c 2 -a 0 -i 26 -k RTR
r -t 16.690551738 -s 16 -d 16 -p cbr -e 512 -c 2 -a 0 -i 26 -k AGT
+ -t 16.746506901 -s 0 -d -1 -p cbr -e 512 -c 2 -a 0 -i 27 -k AGT 
- -t 16.746506901 -s 0 -d -1 -p cbr -e 512 -c 2 -a 0 -i 27 -k AGT
h -t 16.746506901 -s 0 -d -1 -p cbr -e 512 -c 2 -a 0 -i 27 -k AGT
+ -t 16.746506901 -s 0 -d 4 -p cbr -e 532 -c 2 -a 0 -i 27 -k RTR 
- -t 16.746506901 -s 0 -d 4 -p cbr -e 532 -c 2 -a 0 -i 27 -k RTR
h -t 16.746506901 -s 0 -d 4 -p cbr -e 532 -c 2 -a 0 -i 27 -k RTR
+ -t 16.752397137 -s 4 -d 10 -p cbr -e 532 -c 2 -a 0 -i 27 -k RTR 
- -t 16.752397137 -s 4 -d 10 -p cbr -e 532 -c 2 -a 0 -i 27 -k RTR
h -t 16.752397137 -s 4 -d 10 -p cbr -e 532 -c 2 -a 0 -i 27 -k RTR
+ -t 16.758471137 -s 10 -d 16 -p cbr -e 532 -c 2 -a 0 -i 27 -k RTR 
- -t 16.758471137 -s 10 -d 16 -p cbr -e 532 -c 2 -a 0 -i 27 -k RTR
h -t 16.758471137 -s 10 -d 16 -p cbr -e 532 -c 2 -a 0 -i 27 -k RTR
r -t 16.764405137 -s 16 -d 16 -p cbr -e 512 -c 2 -a 0 -i 27 -k AGT
+ -t 16.871681427 -s 0 -d -1 -p cbr -e 512 -c 2 -a 0 -i 28 -k AGT 
- -t 16.871681427 -s 0 -d -1 -p cbr -e 512 -c 2 -a 0 -i 28 -k AGT
h -t 16.871681427 -s 0 -d -1 -p cbr -e 512 -c 2 -a 0 -i 28 -k AGT
+ -t 16.871681427 -s 0 -d 4 -p cbr -e 532 -c 2 -a 0 -i 28 -k RTR 
- -t 16.871681427 -s 0 -d 4 -p cbr -e 532 -c 2 -a 0 -i 28 -k RTR
h -t 16.871681427 -s 0 -d 4 -p cbr -e 532 -c 2 -a 0 -i 28 -k RTR
+ -t 16.877691663 -s 4 -d 10 -p cbr -e 532 -c 2 -a 0 -i 28 -k RTR 
- -t 16.877691663 -s 4 -d 10 -p cbr -e 532 -c 2 -a 0 -i 28 -k RTR
h -t 16.877691663 -s 4 -d 10 -p cbr -e 532 -c 2 -a 0 -i 28 -k RTR
+ -t 16.883445663 -s 10 -d 16 -p cbr -e 532 -c 2 -a 0 -i 28 -k RTR 
- -t 16.883445663 -s 10 -d 16 -p cbr -e 532 -c 2 -a 0 -i 28 -k RTR
h -t 16.883445663 -s 10 -d 16 -p cbr -e 532 -c 2 -a 0 -i 28 -k RTR
r -t 16.889479663 -s 16 -d 16 -p cbr -e 512 -c 2 -a 0 -i 28 -k AGT
n -t 17.000000 -s 4 -x 300.000000 -y 100.000000 -U 0.288709 -V 2.986076 -T 121.229351
+ -t 17.016546890 -s 0 -d -1 -p cbr -e 512 -c 2 -a 0 -i 29 -k AGT 
- -t 17.016546890 -s 0 -d -1 -p cbr -e 512 -c 2 -a 0 -i 29 -k AGT
h -t 17.016546890 -s 0 -d -1 -p cbr -e 512 -c 2 -a 0 -i 29 -k AGT
+ -t 17.016546890 -s 0 -d 4 -p cbr -e 532 -c 2 -a 0 -i 29 -k RTR 
- -t 17.016546890 -s 0 -d 4 -p cbr -e 532 -c 2 -a 0 -i 29 -k RTR
h -t 17.016546890 -s 0 -d 4 -p cbr -e 532 -c 2 -a 0 -i 29 -k RTR
+ -t 17.021997127 -s 4 -d 10 -p cbr -e 532 -c 2 -a 0 -i 29 -k RTR 
- -t 17.021997127 -s 4 -d 10 -p cbr -e 532 -c 2 -a 0 -i 29 -k RTR
h -t 17.021997127 -s 4 -d 10 -p cbr -e 532 -c 2 -a 0 -i 29 -k RTR
+ -t 17.028231126 -s 10 -d 16 -p cbr -e 532 -c 2 -a 0 -i 29 -k RTR 
- -t 17.028231126 -s 10 -d 16 -p cbr -e 532 -c 2 -a 0 -i 29 -k RTR
h -t 17.028231126 -s 10 -d 16 -p cbr -e 532 -c 2 -a 0 -i 29 -k RTR
r -t 17.034265126 -s 16 -d 16 -p cbr -e 512 -c 2 -a 0 -i 29 -k AGT
+ -t 17.143744643 -s 0 -d -1 -p cbr -e 512 -c 2 -a 0 -i 30 -k AGT 
- -t 17.143744643 -s 0 -d -1 -p cbr -e 512 -c 2 -a 0 -i 30 -k AGT
h -t 17.143744643 -s 0 -d -1 -p cbr -e 512 -c 2 -a 0 -i 30 -k AGT
+ -t 17.143744643 -s 0 -d 4 -p cbr -e 532 -c 2 -a 0 -i 30 -k RTR 
- -t 17.143744643 -s 0 -d 4 -p cbr -e 532 -c 2 -a 0 -i 30 -k RTR
h -t 17.143744643 -s 0 -d 4 -p cbr -e 532 -c 2 -a 0 -i 30 -k RTR
+ -t 17.149754881 -s 4 -d 10 -p cbr -e 532 -c 2 -a 0 -i 30 -k RTR 
- -t 17.149754881 -s 4 -d 10 -p cbr -e 532 -c 2 -a 0 -i 30 -k RTR
h -t 17.149754881 -s 4 -d 10 -p cbr -e 532 -c 2 -a 0 -i 30 -k RTR
+ -t 17.155548876 -s 10 -d 16 -p cbr -e 532 -c 2 -a 0 -i 30 -k RTR 
- -t 17.155548876 -s 10 -d 16 -p cbr -e 532 -c 2 -a 0 -i 30 -k RTR
h -t 17.155548876 -s 10 -d 16 -p cbr -e 532 -c 2 -a 0 -i 30 -k RTR
r -t 17.161602876 -s 16 -d 16 -p cbr -e 512 -c 2 -a 0 -i 30 -k AGT
+ -t 17.250121650 -s 0 -d -1 -p cbr -e 512 -c 2 -a 0 -i 31 -k AGT 
- -t 17.250121650 -s 0 -d -1 -p cbr -e 512 -c 2 -a 0 -i 31 -k AGT
h -t 17.250121650 -s 0 -d -1 -p cbr -e 512 -c 2 -a 0 -i 31 -k AGT
+ -t 17.250121650 -s 0 -d 4 -p cbr -e 532 -c 2 -a 0 -i 31 -k RTR 
- -t 17.250121650 -s 0 -d 4 -p cbr -e 532 -c 2 -a 0 -i 31 -k RTR
h -t 17.250121650 -s 0 -d 4 -p cbr -e 532 -c 2 -a 0 -i 31 -k RTR
+ -t 17.256071891 -s 4 -d 10 -p cbr -e 532 -c 2 -a 0 -i 31 -k RTR 
- -t 17.256071891 -s 4 -d 10 -p cbr -e 532 -c 2 -a 0 -i 31 -k RTR
h -t 17.256071891 -s 4 -d 10 -p cbr -e 532 -c 2 -a 0 -i 31 -k RTR
+ -t 17.262025883 -s 10 -d 16 -p cbr -e 532 -c 2 -a 0 -i 31 -k RTR 
- -t 17.262025883 -s 10 -d 16 -p cbr -e 532 -c 2 -a 0 -i 31 -k RTR
h -t 17.262025883 -s 10 -d 16 -p cbr -e 532 -c 2 -a 0 -i 31 -k RTR
r -t 17.268179883 -s 16 -d 16 -p cbr -e 512 -c 2 -a 0 -i 31 -k AGT
+ -t 17.330841721 -s 0 -d -1 -p cbr -e 512 -c 2 -a 0 -i 32 -k AGT 
- -t 17.330841721 -s 0 -d -1 -p cbr -e 512 -c 2 -a 0 -i 32 -k AGT
h -t 17.330841721 -s 0 -d -1 -p cbr -e 512 -c 2 -a 0 -i 32 -k AGT
+ -t 17.330841721 -s 0 -d 4 -p cbr -e 532 -c 2 -a 0 -i 32 -k RTR 
- -t 17.330841721 -s 0 -d 4 -p cbr -e 532 -c 2 -a 0 -i 32 -k RTR
h -t 17.330841721 -s 0 -d 4 -p cbr -e 532 -c 2 -a 0 -i 32 -k RTR
+ -t 17.336391962 -s 4 -d 10 -p cbr -e 532 -c 2 -a 0 -i 32 -k RTR 
- -t 17.336391962 -s 4 -d 10 -p cbr -e 532 -c 2 -a 0 -i 32 -k RTR
h -t 17.336391962 -s 4 -d 10 -p cbr -e 532 -c 2 -a 0 -i 32 -k RTR
+ -t 17.342285952 -s 10 -d 16 -p cbr -e 532 -c 2 -a 0 -i 32 -k RTR 
- -t 17.342285952 -s 10 -d 16 -p cbr -e 532 -c 2 -a 0 -i 32 -k RTR
h -t 17.342285952 -s 10 -d 16 -p cbr -e 532 -c 2 -a 0 -i 32 -k RTR