Sconfig 0.00000 tap: on snoop: rts? on errs? on
Sconfig 0.00000 salvage: on !bd replies? on
Sconfig 0.00000 grat error: on grat reply: on
Sconfig 0.00000 $reply for props: on ring 0 search: on
Sconfig 0.00000 using MOBICACHE
s 15.000000000 _0_ AGT  --- 0 cbr 512 [0 0 0 0] ------- [0:0 23:0 32 0] [0] 0 0
r 15.000000000 _0_ RTR  --- 0 cbr 512 [0 0 0 0] ------- [0:0 23:0 32 0] [0] 0 0
s 15.000000000 _1_ AGT  --- 2 cbr 512 [0 0 0 0] ------- [1:0 23:1 32 0] [0] 0 0
r 15.000000000 _1_ RTR  --- 2 cbr 512 [0 0 0 0] ------- [1:0 23:1 32 0] [0] 0 0
s 15.000000000 _3_ AGT  --- 4 cbr 512 [0 0 0 0] ------- [3:0 21:0 32 0] [0] 0 0
r 15.000000000 _3_ RTR  --- 4 cbr 512 [0 0 0 0] ------- [3:0 21:0 32 0] [0] 0 0
s 15.002023425 _1_ RTR  --- 3 DSR 32 [0 0 0 0] ------- [1:255 23:255 32 0] 1 [1 1] [0 1 0 0->0] [0 0 0 0->0]
r 15.002955759 _0_ RTR  --- 3 DSR 32 [0 ffffffff 1 800] ------- [1:255 23:255 32 0] 1 [1 1] [0 1 0 0->0] [0 0 0 0->0]
r 15.002955759 _6_ RTR  --- 3 DSR 32 [0 ffffffff 1 800] ------- [1:255 23:255 32 0] 1 [1 1] [0 1 0 0->0] [0 0 0 0->0]
r 15.002955759 _2_ RTR  --- 3 DSR 32 [0 ffffffff 1 800] ------- [1:255 23:255 32 0] 1 [1 1] [0 1 0 0->0] [0 0 0 0->0]
r 15.002955897 _5_ RTR  --- 3 DSR 32 [0 ffffffff 1 800] ------- [1:255 23:255 32 0] 1 [1 1] [0 1 0 0->0] [0 0 0 0->0]
r 15.002955897 _7_ RTR  --- 3 DSR 32 [0 ffffffff 1 800] ------- [1:255 23:255 32 0] 1 [1 1] [0 1 0 0->0] [0 0 0 0->0]
r 15.002956092 _11_ RTR  --- 3 DSR 32 [0 ffffffff 1 800] ------- [1:255 23:255 32 0] 1 [1 1] [0 1 0 0->0] [0 0 0 0->0]
r 15.002956092 _3_ RTR  --- 3 DSR 32 [0 ffffffff 1 800] ------- [1:255 23:255 32 0] 1 [1 1] [0 1 0 0->0] [0 0 0 0->0]
r 15.002956171 _10_ RTR  --- 3 DSR 32 [0 ffffffff 1 800] ------- [1:255 23:255 32 0] 1 [1 1] [0 1 0 0->0] [0 0 0 0->0]
r 15.002956171 _12_ RTR  --- 3 DSR 32 [0 ffffffff 1 800] ------- [1:255 23:255 32 0] 1 [1 1] [0 1 0 0->0] [0 0 0 0->0]
r 15.002956171 _8_ RTR  --- 3 DSR 32 [0 ffffffff 1 800] ------- [1:255 23:255 32 0] 1 [1 1] [0 1 0 0->0] [0 0 0 0->0]
s 15.008841559 _3_ RTR  --- 5 DSR 32 [0 0 0 0] ------- [3:255 21:255 32 0] 1 [1 1] [0 1 0 0->0] [0 0 0 0->0]
s 15.008890119 _0_ RTR  --- 1 DSR 32 [0 0 0 0] ------- [0:255 23:255 32 0] 1 [1 1] [0 1 0 0->0] [0 0 0 0->0]
r 15.009813892 _2_ RTR  --- 5 DSR 32 [0 ffffffff 3 800] ------- [3:255 21:255 32 0] 1 [1 1] [0 1 0 0->0] [0 0 0 0->0]
r 15.009813892 _8_ RTR  --- 5 DSR 32 [0 ffffffff 3 800] ------- [3:255 21:255 32 0] 1 [1 1] [0 1 0 0->0] [0 0 0 0->0]
r 15.009813892 _4_ RTR  --- 5 DSR 32 [0 ffffffff 3 800] ------- [3:255 21:255 32 0] 1 [1 1] [0 1 0 0->0] [0 0 0 0->0]
r 15.009814030 _7_ RTR  --- 5 DSR 32 [0 ffffffff 3 800] ------- [3:255 21:255 32 0] 1 [1 1] [0 1 0 0->0] [0 0 0 0->0]
r 15.009814030 _9_ RTR  --- 5 DSR 32 [0 ffffffff 3 800] ------- [3:255 21:255 32 0] 1 [1 1] [0 1 0 0->0] [0 0 0 0->0]
r 15.009814225 _1_ RTR  --- 5 DSR 32 [0 ffffffff 3 800] ------- [3:255 21:255 32 0] 1 [1 1] [0 1 0 0->0] [0 0 0 0->0]
r 15.009814225 _13_ RTR  --- 5 DSR 32 [0 ffffffff 3 800] ------- [3:255 21:255 32 0] 1 [1 1] [0 1 0 0->0] [0 0 0 0->0]
r 15.009814304 _12_ RTR  --- 5 DSR 32 [0 ffffffff 3 800] ------- [3:255 21:255 32 0] 1 [1 1] [0 1 0 0->0] [0 0 0 0->0]
r 15.009814304 _6_ RTR  --- 5 DSR 32 [0 ffffffff 3 800] ------- [3:255 21:255 32 0] 1 [1 1] [0 1 0 0->0] [0 0 0 0->0]
r 15.009814304 _14_ RTR  --- 5 DSR 32 [0 ffffffff 3 800] ------- [3:255 21:255 32 0] 1 [1 1] [0 1 0 0->0] [0 0 0 0->0]
r 15.011020892 _5_ RTR  --- 1 DSR 32 [0 ffffffff 0 800] ------- [0:255 23:255 32 0] 1 [1 1] [0 1 0 0->0] [0 0 0 0->0]
r 15.011020892 _1_ RTR  --- 1 DSR 32 [0 ffffffff 0 800] ------- [0:255 23:255 32 0] 1 [1 1] [0 1 0 0->0] [0 0 0 0->0]
r 15.011021030 _6_ RTR  --- 1 DSR 32 [0 ffffffff 0 800] ------- [0:255 23:255 32 0] 1 [1 1] [0 1 0 0->0] [0 0 0 0->0]
r 15.011021225 _10_ RTR  --- 1 DSR 32 [0 ffffffff 0 800] ------- [0:255 23:255 32 0] 1 [1 1] [0 1 0 0->0] [0 0 0 0->0]
r 15.011021225 _2_ RTR  --- 1 DSR 32 [0 ffffffff 0 800] ------- [0:255 23:255 32 0] 1 [1 1] [0 1 0 0->0] [0 0 0 0->0]
r 15.011021304 _11_ RTR  --- 1 DSR 32 [0 ffffffff 0 800] ------- [0:255 23:255 32 0] 1 [1 1] [0 1 0 0->0] [0 0 0 0->0]
r 15.011021304 _7_ RTR  --- 1 DSR 32 [0 ffffffff 0 800] ------- [0:255 23:255 32 0] 1 [1 1] [0 1 0 0->0] [0 0 0 0->0]
s 15.041514746 _1_ RTR  --- 9 DSR 32 [0 0 0 0] ------- [1:255 23:255 32 0] 1 [1 2] [0 2 0 0->16] [0 0 0 0->0]
r 15.042287080 _0_ RTR  --- 9 DSR 32 [0 ffffffff 1 800] ------- [1:255 23:255 32 0] 1 [1 2] [0 2 0 0->16] [0 0 0 0->0]
r 15.042287080 _6_ RTR  --- 9 DSR 32 [0 ffffffff 1 800] ------- [1:255 23:255 32 0] 1 [1 2] [0 2 0 0->16] [0 0 0 0->0]
r 15.042287080 _2_ RTR  --- 9 DSR 32 [0 ffffffff 1 800] ------- [1:255 23:255 32 0] 1 [1 2] [0 2 0 0->16] [0 0 0 0->0]
r 15.042287218 _5_ RTR  --- 9 DSR 32 [0 ffffffff 1 800] ------- [1:255 23:255 32 0] 1 [1 2] [0 2 0 0->16] [0 0 0 0->0]
r 15.042287218 _7_ RTR  --- 9 DSR 32 [0 ffffffff 1 800] ------- [1:255 23:255 32 0] 1 [1 2] [0 2 0 0->16] [0 0 0 0->0]
r 15.042287413 _11_ RTR  --- 9 DSR 32 [0 ffffffff 1 800] ------- [1:255 23:255 32 0] 1 [1 2] [0 2 0 0->16] [0 0 0 0->0]
r 15.042287413 _3_ RTR  --- 9 DSR 32 [0 ffffffff 1 800] ------- [1:255 23:255 32 0] 1 [1 2] [0 2 0 0->16] [0 0 0 0->0]
r 15.042287492 _10_ RTR  --- 9 DSR 32 [0 ffffffff 1 800] ------- [1:255 23:255 32 0] 1 [1 2] [0 2 0 0->16] [0 0 0 0->0]
r 15.042287492 _12_ RTR  --- 9 DSR 32 [0 ffffffff 1 800] ------- [1:255 23:255 32 0] 1 [1 2] [0 2 0 0->16] [0 0 0 0->0]
r 15.042287492 _8_ RTR  --- 9 DSR 32 [0 ffffffff 1 800] ------- [1:255 23:255 32 0] 1 [1 2] [0 2 0 0->16] [0 0 0 0->0]
f 15.043879395 _0_ RTR  --- 9 DSR 48 [0 ffffffff 1 800] ------- [1:255 23:255 32 0] 2 [1 2] [0 2 0 0->16] [0 0 0 0->0]
f 15.044664461 _12_ RTR  --- 9 DSR 48 [0 ffffffff 1 800] ------- [1:255 23:255 32 0] 2 [1 2] [0 2 0 0->16] [0 0 0 0->0]
f 15.045226427 _2_ RTR  --- 9 DSR 48 [0 ffffffff 1 800] ------- [1:255 23:255 32 0] 2 [1 2] [0 2 0 0->16] [0 0 0 0->0]
r 15.045359729 _5_ RTR  --- 9 DSR 48 [0 ffffffff 0 800] ------- [1:255 23:255 32 0] 2 [1 2] [0 2 0 0->16] [0 0 0 0->0]
r 15.045359729 _1_ RTR  --- 9 DSR 48 [0 ffffffff 0 800] ------- [1:255 23:255 32 0] 2 [1 2] [0 2 0 0->16] [0 0 0 0->0]
r 15.045359867 _6_ RTR  --- 9 DSR 48 [0 ffffffff 0 800] ------- [1:255 23:255 32 0] 2 [1 2] [0 2 0 0->16] [0 0 0 0->0]
r 15.045360062 _10_ RTR  --- 9 DSR 48 [0 ffffffff 0 800] ------- [1:255 23:255 32 0] 2 [1 2] [0 2 0 0->16] [0 0 0 0->0]
r 15.045360062 _2_ RTR  --- 9 DSR 48 [0 ffffffff 0 800] ------- [1:255 23:255 32 0] 2 [1 2] [0 2 0 0->16] [0 0 0 0->0]
r 15.045360141 _11_ RTR  --- 9 DSR 48 [0 ffffffff 0 800] ------- [1:255 23:255 32 0] 2 [1 2] [0 2 0 0->16] [0 0 0 0->0]
r 15.045360141 _7_ RTR  --- 9 DSR 48 [0 ffffffff 0 800] ------- [1:255 23:255 32 0] 2 [1 2] [0 2 0 0->16] [0 0 0 0->0]
f 15.045928538 _8_ RTR  --- 9 DSR 48 [0 ffffffff 1 800] ------- [1:255 23:255 32 0] 2 [1 2] [0 2 0 0->16] [0 0 0 0->0]
f 15.046251583 _10_ RTR  --- 9 DSR 48 [0 ffffffff 1 800] ------- [1:255 23:255 32 0] 2 [1 2] [0 2 0 0->16] [0 0 0 0->0]
r 15.046370395 _1_ RTR  --- 9 DSR 48 [0 ffffffff 2 800] ------- [1:255 23:255 32 0] 2 [1 2] [0 2 0 0->16] [0 0 0 0->0]
r 15.046370395 _7_ RTR  --- 9 DSR 48 [0 ffffffff 2 800] ------- [1:255 23:255 32 0] 2 [1 2] [0 2 0 0->16] [0 0 0 0->0]
r 15.046370395 _3_ RTR  --- 9 DSR 48 [0 ffffffff 2 800] ------- [1:255 23:255 32 0] 2 [1 2] [0 2 0 0->16] [0 0 0 0->0]
r 15.046370533 _6_ RTR  --- 9 DSR 48 [0 ffffffff 2 800] ------- [1:255 23:255 32 0] 2 [1 2] [0 2 0 0->16] [0 0 0 0->0]
r 15.046370533 _8_ RTR  --- 9 DSR 48 [0 ffffffff 2 800] ------- [1:255 23:255 32 0] 2 [1 2] [0 2 0 0->16] [0 0 0 0->0]
r 15.046370729 _0_ RTR  --- 9 DSR 48 [0 ffffffff 2 800] ------- [1:255 23:255 32 0] 2 [1 2] [0 2 0 0->16] [0 0 0 0->0]
r 15.046370729 _12_ RTR  --- 9 DSR 48 [0 ffffffff 2 800] ------- [1:255 23:255 32 0] 2 [1 2] [0 2 0 0->16] [0 0 0 0->0]
r 15.046370729 _4_ RTR  --- 9 DSR 48 [0 ffffffff 2 800] ------- [1:255 23:255 32 0] 2 [1 2] [0 2 0 0->16] [0 0 0 0->0]
r 15.046370807 _11_ RTR  --- 9 DSR 48 [0 ffffffff 2 800] ------- [1:255 23:255 32 0] 2 [1 2] [0 2 0 0->16] [0 0 0 0->0]
r 15.046370807 _5_ RTR  --- 9 DSR 48 [0 ffffffff 2 800] ------- [1:255 23:255 32 0] 2 [1 2] [0 2 0 0->16] [0 0 0 0->0]
r 15.046370807 _13_ RTR  --- 9 DSR 48 [0 ffffffff 2 800] ------- [1:255 23:255 32 0] 2 [1 2] [0 2 0 0->16] [0 0 0 0->0]
r 15.046370807 _9_ RTR  --- 9 DSR 48 [0 ffffffff 2 800] ------- [1:255 23:255 32 0] 2 [1 2] [0 2 0 0->16] [0 0 0 0->0]
f 15.046374101 _11_ RTR  --- 9 DSR 48 [0 ffffffff 1 800] ------- [1:255 23:255 32 0] 2 [1 2] [0 2 0 0->16] [0 0 0 0->0]
f 15.046609444 _7_ RTR  --- 9 DSR 48 [0 ffffffff 1 800] ------- [1:255 23:255 32 0] 2 [1 2] [0 2 0 0->16] [0 0 0 0->0]
f 15.047025324 _5_ RTR  --- 9 DSR 48 [0 ffffffff 1 800] ------- [1:255 23:255 32 0] 2 [1 2] [0 2 0 0->16] [0 0 0 0->0]
r 15.047381062 _7_ RTR  --- 9 DSR 48 [0 ffffffff c 800] ------- [1:255 23:255 32 0] 2 [1 2] [0 2 0 0->16] [0 0 0 0->0]
r 15.047381062 _11_ RTR  --- 9 DSR 48 [0 ffffffff c 800] ------- [1:255 23:255 32 0] 2 [1 2] [0 2 0 0->16] [0 0 0 0->0]
r 15.047381062 _17_ RTR  --- 9 DSR 48 [0 ffffffff c 800] ------- [1:255 23:255 32 0] 2 [1 2] [0 2 0 0->16] [0 0 0 0->0]
r 15.047381062 _13_ RTR  --- 9 DSR 48 [0 ffffffff c 800] ------- [1:255 23:255 32 0] 2 [1 2] [0 2 0 0->16] [0 0 0 0->0]
r 15.047381200 _16_ RTR  --- 9 DSR 48 [0 ffffffff c 800] ------- [1:255 23:255 32 0] 2 [1 2] [0 2 0 0->16] [0 0 0 0->0]
r 15.047381200 _6_ RTR  --- 9 DSR 48 [0 ffffffff c 800] ------- [1:255 23:255 32 0] 2 [1 2] [0 2 0 0->16] [0 0 0 0->0]
r 15.047381200 _8_ RTR  --- 9 DSR 48 [0 ffffffff c 800] ------- [1:255 23:255 32 0] 2 [1 2] [0 2 0 0->16] [0 0 0 0->0]
r 15.047381200 _18_ RTR  --- 9 DSR 48 [0 ffffffff c 800] ------- [1:255 23:255 32 0] 2 [1 2] [0 2 0 0->16] [0 0 0 0->0]
r 15.047381395 _2_ RTR  --- 9 DSR 48 [0 ffffffff c 800] ------- [1:255 23:255 32 0] 2 [1 2] [0 2 0 0->16] [0 0 0 0->0]
r 15.047381395 _10_ RTR  --- 9 DSR 48 [0 ffffffff c 800] ------- [1:255 23:255 32 0] 2 [1 2] [0 2 0 0->16] [0 0 0 0->0]
r 15.047381395 _22_ RTR  --- 9 DSR 48 [0 ffffffff c 800] ------- [1:255 23:255 32 0] 2 [1 2] [0 2 0 0->16] [0 0 0 0->0]
r 15.047381395 _14_ RTR  --- 9 DSR 48 [0 ffffffff c 800] ------- [1:255 23:255 32 0] 2 [1 2] [0 2 0 0->16] [0 0 0 0->0]
r 15.047381474 _21_ RTR  --- 9 DSR 48 [0 ffffffff c 800] ------- [1:255 23:255 32 0] 2 [1 2] [0 2 0 0->16] [0 0 0 0->0]
r 15.047381474 _1_ RTR  --- 9 DSR 48 [0 ffffffff c 800] ------- [1:255 23:255 32 0] 2 [1 2] [0 2 0 0->16] [0 0 0 0->0]
r 15.047381474 _15_ RTR  --- 9 DSR 48 [0 ffffffff c 800] ------- [1:255 23:255 32 0] 2 [1 2] [0 2 0 0->16] [0 0 0 0->0]
r 15.047381474 _5_ RTR  --- 9 DSR 48 [0 ffffffff c 800] ------- [1:255 23:255 32 0] 2 [1 2] [0 2 0 0->16] [0 0 0 0->0]
r 15.047381474 _3_ RTR  --- 9 DSR 48 [0 ffffffff c 800] ------- [1:255 23:255 32 0] 2 [1 2] [0 2 0 0->16] [0 0 0 0->0]
r 15.047381474 _23_ RTR  --- 9 DSR 48 [0 ffffffff c 800] ------- [1:255 23:255 32 0] 2 [1 2] [0 2 0 0->16] [0 0 0 0->0]
r 15.047381474 _9_ RTR  --- 9 DSR 48 [0 ffffffff c 800] ------- [1:255 23:255 32 0] 2 [1 2] [0 2 0 0->16] [0 0 0 0->0]
r 15.047381474 _19_ RTR  --- 9 DSR 48 [0 ffffffff c 800] ------- [1:255 23:255 32 0] 2 [1 2] [0 2 0 0->16] [0 0 0 0->0]
f 15.047924506 _18_ RTR  --- 9 DSR 68 [0 ffffffff c 800] ------- [1:255 23:255 32 0] 3 [1 2] [0 2 0 0->16] [0 0 0 0->0]
f 15.048215559 _13_ RTR  --- 9 DSR 68 [0 ffffffff 2 800] ------- [1:255 23:255 32 0] 3 [1 2] [0 2 0 0->16] [0 0 0 0->0]
r 15.048231395 _2_ RTR  --- 9 DSR 48 [0 ffffffff 7 800] ------- [1:255 23:255 32 0] 2 [1 2] [0 2 0 0->16] [0 0 0 0->0]
r 15.048231395 _6_ RTR  --- 9 DSR 48 [0 ffffffff 7 800] ------- [1:255 23:255 32 0] 2 [1 2] [0 2 0 0->16] [0 0 0 0->0]
r 15.048231395 _12_ RTR  --- 9 DSR 48 [0 ffffffff 7 800] ------- [1:255 23:255 32 0] 2 [1 2] [0 2 0 0->16] [0 0 0 0->0]
r 15.048231395 _8_ RTR  --- 9 DSR 48 [0 ffffffff 7 800] ------- [1:255 23:255 32 0] 2 [1 2] [0 2 0 0->16] [0 0 0 0->0]
r 15.048231533 _11_ RTR  --- 9 DSR 48 [0 ffffffff 7 800] ------- [1:255 23:255 32 0] 2 [1 2] [0 2 0 0->16] [0 0 0 0->0]
r 15.048231533 _1_ RTR  --- 9 DSR 48 [0 ffffffff 7 800] ------- [1:255 23:255 32 0] 2 [1 2] [0 2 0 0->16] [0 0 0 0->0]
r 15.048231533 _3_ RTR  --- 9 DSR 48 [0 ffffffff 7 800] ------- [1:255 23:255 32 0] 2 [1 2] [0 2 0 0->16] [0 0 0 0->0]
r 15.048231533 _13_ RTR  --- 9 DSR 48 [0 ffffffff 7 800] ------- [1:255 23:255 32 0] 2 [1 2] [0 2 0 0->16] [0 0 0 0->0]
r 15.048231729 _5_ RTR  --- 9 DSR 48 [0 ffffffff 7 800] ------- [1:255 23:255 32 0] 2 [1 2] [0 2 0 0->16] [0 0 0 0->0]
r 15.048231729 _17_ RTR  --- 9 DSR 48 [0 ffffffff 7 800] ------- [1:255 23:255 32 0] 2 [1 2] [0 2 0 0->16] [0 0 0 0->0]
r 15.048231729 _9_ RTR  --- 9 DSR 48 [0 ffffffff 7 800] ------- [1:255 23:255 32 0] 2 [1 2] [0 2 0 0->16] [0 0 0 0->0]
r 15.048231807 _16_ RTR  --- 9 DSR 48 [0 ffffffff 7 800] ------- [1:255 23:255 32 0] 2 [1 2] [0 2 0 0->16] [0 0 0 0->0]
r 15.048231807 _10_ RTR  --- 9 DSR 48 [0 ffffffff 7 800] ------- [1:255 23:255 32 0] 2 [1 2] [0 2 0 0->16] [0 0 0 0->0]
r 15.048231807 _0_ RTR  --- 9 DSR 48 [0 ffffffff 7 800] ------- [1:255 23:255 32 0] 2 [1 2] [0 2 0 0->16] [0 0 0 0->0]
r 15.048231807 _18_ RTR  --- 9 DSR 48 [0 ffffffff 7 800] ------- [1:255 23:255 32 0] 2 [1 2] [0 2 0 0->16] [0 0 0 0->0]
r 15.048231807 _4_ RTR  --- 9 DSR 48 [0 ffffffff 7 800] ------- [1:255 23:255 32 0] 2 [1 2] [0 2 0 0->16] [0 0 0 0->0]
r 15.048231807 _14_ RTR  --- 9 DSR 48 [0 ffffffff 7 800] ------- [1:255 23:255 32 0] 2 [1 2] [0 2 0 0->16] [0 0 0 0->0]
f 15.048758748 _22_ RTR  --- 9 DSR 68 [0 ffffffff c 800] ------- [1:255 23:255 32 0] 3 [1 2] [0 2 0 0->16] [0 0 0 0->0]
r 15.049141729 _3_ RTR  --- 9 DSR 48 [0 ffffffff 8 800] ------- [1:255 23:255 32 0] 2 [1 2] [0 2 0 0->16] [0 0 0 0->0]
r 15.049141729 _7_ RTR  --- 9 DSR 48 [0 ffffffff 8 800] ------- [1:255 23:255 32 0] 2 [1 2] [0 2 0 0->16] [0 0 0 0->0]
r 15.049141729 _9_ RTR  --- 9 DSR 48 [0 ffffffff 8 800] ------- [1:255 23:255 32 0] 2 [1 2] [0 2 0 0->16] [0 0 0 0->0]
r 15.049141867 _2_ RTR  --- 9 DSR 48 [0 ffffffff 8 800] ------- [1:255 23:255 32 0] 2 [1 2] [0 2 0 0->16] [0 0 0 0->0]
r 15.049141867 _4_ RTR  --- 9 DSR 48 [0 ffffffff 8 800] ------- [1:255 23:255 32 0] 2 [1 2] [0 2 0 0->16] [0 0 0 0->0]
r 15.049302141 _23_ RTR  --- 9 DSR 68 [0 ffffffff 12 800] ------- [1:255 23:255 32 0] 3 [1 2] [0 2 0 0->16] [0 0 0 0->0]
r 15.049302279 _22_ RTR  --- 9 DSR 68 [0 ffffffff 12 800] ------- [1:255 23:255 32 0] 3 [1 2] [0 2 0 0->16] [0 0 0 0->0]
r 15.049302279 _24_ RTR  --- 9 DSR 68 [0 ffffffff 12 800] ------- [1:255 23:255 32 0] 3 [1 2] [0 2 0 0->16] [0 0 0 0->0]
r 15.049302474 _8_ RTR  --- 9 DSR 68 [0 ffffffff 12 800] ------- [1:255 23:255 32 0] 3 [1 2] [0 2 0 0->16] [0 0 0 0->0]
f 15.049614948 _17_ RTR  --- 9 DSR 68 [0 ffffffff c 800] ------- [1:255 23:255 32 0] 3 [1 2] [0 2 0 0->16] [0 0 0 0->0]
s 15.050690480 _23_ RTR  --- 11 DSR 60 [0 0 0 0] ------- [23:255 1:255 254 18] 4 [0 2] [1 2 4 1->23] [0 0 0 0->0]
r 15.050776474 _12_ RTR  --- 9 DSR 68 [0 ffffffff 11 800] ------- [1:255 23:255 32 0] 3 [1 2] [0 2 0 0->16] [0 0 0 0->0]
r 15.050776474 _16_ RTR  --- 9 DSR 68 [0 ffffffff 11 800] ------- [1:255 23:255 32 0] 3 [1 2] [0 2 0 0->16] [0 0 0 0->0]
r 15.050776474 _22_ RTR  --- 9 DSR 68 [0 ffffffff 11 800] ------- [1:255 23:255 32 0] 3 [1 2] [0 2 0 0->16] [0 0 0 0->0]
r 15.050776474 _18_ RTR  --- 9 DSR 68 [0 ffffffff 11 800] ------- [1:255 23:255 32 0] 3 [1 2] [0 2 0 0->16] [0 0 0 0->0]
r 15.050776612 _21_ RTR  --- 9 DSR 68 [0 ffffffff 11 800] ------- [1:255 23:255 32 0] 3 [1 2] [0 2 0 0->16] [0 0 0 0->0]
r 15.050776612 _11_ RTR  --- 9 DSR 68 [0 ffffffff 11 800] ------- [1:255 23:255 32 0] 3 [1 2] [0 2 0 0->16] [0 0 0 0->0]
r 15.050776612 _13_ RTR  --- 9 DSR 68 [0 ffffffff 11 800] ------- [1:255 23:255 32 0] 3 [1 2] [0 2 0 0->16] [0 0 0 0->0]
r 15.050776612 _23_ RTR  --- 9 DSR 68 [0 ffffffff 11 800] ------- [1:255 23:255 32 0] 3 [1 2] [0 2 0 0->16] [0 0 0 0->0]
r 15.050776807 _7_ RTR  --- 9 DSR 68 [0 ffffffff 11 800] ------- [1:255 23:255 32 0] 3 [1 2] [0 2 0 0->16] [0 0 0 0->0]
r 15.050776807 _15_ RTR  --- 9 DSR 68 [0 ffffffff 11 800] ------- [1:255 23:255 32 0] 3 [1 2] [0 2 0 0->16] [0 0 0 0->0]
r 15.050776807 _19_ RTR  --- 9 DSR 68 [0 ffffffff 11 800] ------- [1:255 23:255 32 0] 3 [1 2] [0 2 0 0->16] [0 0 0 0->0]
r 15.050776886 _6_ RTR  --- 9 DSR 68 [0 ffffffff 11 800] ------- [1:255 23:255 32 0] 3 [1 2] [0 2 0 0->16] [0 0 0 0->0]
r 15.050776886 _20_ RTR  --- 9 DSR 68 [0 ffffffff 11 800] ------- [1:255 23:255 32 0] 3 [1 2] [0 2 0 0->16] [0 0 0 0->0]
r 15.050776886 _10_ RTR  --- 9 DSR 68 [0 ffffffff 11 800] ------- [1:255 23:255 32 0] 3 [1 2] [0 2 0 0->16] [0 0 0 0->0]
r 15.050776886 _8_ RTR  --- 9 DSR 68 [0 ffffffff 11 800] ------- [1:255 23:255 32 0] 3 [1 2] [0 2 0 0->16] [0 0 0 0->0]
r 15.050776886 _14_ RTR  --- 9 DSR 68 [0 ffffffff 11 800] ------- [1:255 23:255 32 0] 3 [1 2] [0 2 0 0->16] [0 0 0 0->0]
r 15.050776886 _24_ RTR  --- 9 DSR 68 [0 ffffffff 11 800] ------- [1:255 23:255 32 0] 3 [1 2] [0 2 0 0->16] [0 0 0 0->0]
s 15.051290981 _23_ RTR  --- 10 DSR 52 [0 0 0 0] ------- [23:255 1:255 254 12] 3 [0 2] [1 2 3 1->23] [0 0 0 0->0]
f 15.051311337 _14_ RTR  --- 9 DSR 68 [0 ffffffff c 800] ------- [1:255 23:255 32 0] 3 [1 2] [0 2 0 0->16] [0 0 0 0->0]
f 15.051383738 _3_ RTR  --- 9 DSR 48 [0 ffffffff 1 800] ------- [1:255 23:255 32 0] 2 [1 2] [0 2 0 0->16] [0 0 0 0->0]
f 15.052181453 _6_ RTR  --- 9 DSR 48 [0 ffffffff 1 800] ------- [1:255 23:255 32 0] 2 [1 2] [0 2 0 0->16] [0 0 0 0->0]
r 15.052459612 _18_ RTR  --- 11 DSR 60 [13a 12 17 800] ------- [23:255 1:255 254 18] 4 [0 2] [1 2 4 1->23] [0 0 0 0->0]
f 15.052459612 _18_ RTR  --- 11 DSR 60 [13a 12 17 800] ------- [23:255 1:255 253 12] 4 [0 2] [1 2 4 1->23] [0 0 0 0->0]
f 15.052582629 _19_ RTR  --- 9 DSR 68 [0 ffffffff c 800] ------- [1:255 23:255 32 0] 3 [1 2] [0 2 0 0->16] [0 0 0 0->0]
f 15.052589499 _4_ RTR  --- 9 DSR 68 [0 ffffffff 2 800] ------- [1:255 23:255 32 0] 3 [1 2] [0 2 0 0->16] [0 0 0 0->0]
f 15.053262670 _20_ RTR  --- 9 DSR 92 [0 ffffffff 11 800] ------- [1:255 23:255 32 0] 4 [1 2] [0 2 0 0->16] [0 0 0 0->0]
s 15.053265707 _0_ RTR  --- 13 DSR 32 [0 0 0 0] ------- [0:255 23:255 32 0] 1 [1 2] [0 2 0 0->16] [0 0 0 0->0]
f 15.053649359 _15_ RTR  --- 9 DSR 68 [0 ffffffff c 800] ------- [1:255 23:255 32 0] 3 [1 2] [0 2 0 0->16] [0 0 0 0->0]
f 15.053706924 _9_ RTR  --- 9 DSR 68 [0 ffffffff 2 800] ------- [1:255 23:255 32 0] 3 [1 2] [0 2 0 0->16] [0 0 0 0->0]
r 15.053944555 _18_ RTR  --- 9 DSR 68 [0 ffffffff 16 800] ------- [1:255 23:255 32 0] 3 [1 2] [0 2 0 0->16] [0 0 0 0->0]
r 15.055847969 _12_ RTR  --- 11 DSR 60 [13a c 12 800] ------- [23:255 1:255 253 12] 4 [0 2] [1 2 4 1->23] [0 0 0 0->0]
f 15.055847969 _12_ RTR  --- 11 DSR 60 [13a c 12 800] ------- [23:255 1:255 252 1] 4 [0 2] [1 2 4 1->23] [0 0 0 0->0]
f 15.057138525 _21_ RTR  --- 9 DSR 68 [0 ffffffff c 800] ------- [1:255 23:255 32 0] 3 [1 2] [0 2 0 0->16] [0 0 0 0->0]
f 15.057163344 _16_ RTR  --- 9 DSR 68 [0 ffffffff c 800] ------- [1:255 23:255 32 0] 3 [1 2] [0 2 0 0->16] [0 0 0 0->0]
r 15.057212636 _8_ RTR  --- 9 DSR 68 [0 ffffffff d 800] ------- [1:255 23:255 32 0] 3 [1 2] [0 2 0 0->16] [0 0 0 0->0]
r 15.057212636 _12_ RTR  --- 9 DSR 68 [0 ffffffff d 800] ------- [1:255 23:255 32 0] 3 [1 2] [0 2 0 0->16] [0 0 0 0->0]
r 15.057212636 _18_ RTR  --- 9 DSR 68 [0 ffffffff d 800] ------- [1:255 23:255 32 0] 3 [1 2] [0 2 0 0->16] [0 0 0 0->0]
r 15.057212636 _14_ RTR  --- 9 DSR 68 [0 ffffffff d 800] ------- [1:255 23:255 32 0] 3 [1 2] [0 2 0 0->16] [0 0 0 0->0]
r 15.057212774 _17_ RTR  --- 9 DSR 68 [0 ffffffff d 800] ------- [1:255 23:255 32 0] 3 [1 2] [0 2 0 0->16] [0 0 0 0->0]
r 15.057212774 _7_ RTR  --- 9 DSR 68 [0 ffffffff d 800] ------- [1:255 23:255 32 0] 3 [1 2] [0 2 0 0->16] [0 0 0 0->0]
r 15.057212774 _9_ RTR  --- 9 DSR 68 [0 ffffffff d 800] ------- [1:255 23:255 32 0] 3 [1 2] [0 2 0 0->16] [0 0 0 0->0]
r 15.057212774 _19_ RTR  --- 9 DSR 68 [0 ffffffff d 800] ------- [1:255 23:255 32 0] 3 [1 2] [0 2 0 0->16] [0 0 0 0->0]
r 15.057212969 _3_ RTR  --- 9 DSR 68 [0 ffffffff d 800] ------- [1:255 23:255 32 0] 3 [1 2] [0 2 0 0->16] [0 0 0 0->0]
r 15.057212969 _11_ RTR  --- 9 DSR 68 [0 ffffffff d 800] ------- [1:255 23:255 32 0] 3 [1 2] [0 2 0 0->16] [0 0 0 0->0]
r 15.057212969 _23_ RTR  --- 9 DSR 68 [0 ffffffff d 800] ------- [1:255 23:255 32 0] 3 [1 2] [0 2 0 0->16] [0 0 0 0->0]
r 15.057213048 _22_ RTR  --- 9 DSR 68 [0 ffffffff d 800] ------- [1:255 23:255 32 0] 3 [1 2] [0 2 0 0->16] [0 0 0 0->0]
r 15.057213048 _2_ RTR  --- 9 DSR 68 [0 ffffffff d 800] ------- [1:255 23:255 32 0] 3 [1 2] [0 2 0 0->16] [0 0 0 0->0]
r 15.057213048 _16_ RTR  --- 9 DSR 68 [0 ffffffff d 800] ------- [1:255 23:255 32 0] 3 [1 2] [0 2 0 0->16] [0 0 0 0->0]
r 15.057213048 _6_ RTR  --- 9 DSR 68 [0 ffffffff d 800] ------- [1:255 23:255 32 0] 3 [1 2] [0 2 0 0->16] [0 0 0 0->0]
r 15.057213048 _4_ RTR  --- 9 DSR 68 [0 ffffffff d 800] ------- [1:255 23:255 32 0] 3 [1 2] [0 2 0 0->16] [0 0 0 0->0]
r 15.057213048 _24_ RTR  --- 9 DSR 68 [0 ffffffff d 800] ------- [1:255 23:255 32 0] 3 [1 2] [0 2 0 0->16] [0 0 0 0->0]
f 15.058486195 _24_ RTR  --- 9 DSR 92 [0 ffffffff 12 800] ------- [1:255 23:255 32 0] 4 [1 2] [0 2 0 0->16] [0 0 0 0->0]
r 15.058813205 _12_ RTR  --- 10 DSR 52 [13a c 17 800] ------- [23:255 1:255 254 12] 3 [0 2] [1 2 3 1->23] [0 0 0 0->0]
f 15.058813205 _12_ RTR  --- 10 DSR 52 [13a c 17 800] ------- [23:255 1:255 253 1] 3 [0 2] [1 2 3 1->23] [0 0 0 0->0]
s 15.059968557 _23_ RTR  --- 12 DSR 60 [0 0 0 0] ------- [23:255 1:255 254 17] 4 [0 2] [1 2 4 1->23] [0 0 0 0->0]
r 15.060087736 _10_ RTR  --- 9 DSR 48 [0 ffffffff b 800] ------- [1:255 23:255 32 0] 2 [1 2] [0 2 0 0->16] [0 0 0 0->0]
r 15.060087736 _12_ RTR  --- 9 DSR 48 [0 ffffffff b 800] ------- [1:255 23:255 32 0] 2 [1 2] [0 2 0 0->16] [0 0 0 0->0]
r 15.060087995 _11_ RTR  --- 9 DSR 48 [0 ffffffff a 800] ------- [1:255 23:255 32 0] 2 [1 2] [0 2 0 0->16] [0 0 0 0->0]
s 15.061987606 _3_ RTR  --- 14 DSR 32 [0 0 0 0] ------- [3:255 21:255 32 0] 1 [1 2] [0 2 0 0->16] [0 0 0 0->0]
r 15.062116564 _1_ RTR  --- 11 DSR 60 [13a 1 c 800] ------- [23:255 1:255 252 1] 4 [0 2] [1 2 4 1->23] [0 0 0 0->0]
SFESTs 15.062116564 _1_ 2 [1 -> 23] 1(1) to 12 [1 |12 18 23 ]
s 15.062116564 _1_ RTR  --- 2 cbr 556 [0 0 0 0] ------- [1:0 23:1 32 12] [0] 0 0
s 15.062475629 _23_ RTR  --- 15 DSR 60 [0 0 0 0] ------- [23:255 1:255 254 13] 4 [0 2] [1 2 4 1->23] [0 0 0 0->0]
r 15.063461231 _1_ RTR  --- 9 DSR 48 [0 ffffffff 6 800] ------- [1:255 23:255 32 0] 2 [1 2] [0 2 0 0->16] [0 0 0 0->0]
r 15.063461231 _11_ RTR  --- 9 DSR 48 [0 ffffffff 6 800] ------- [1:255 23:255 32 0] 2 [1 2] [0 2 0 0->16] [0 0 0 0->0]
r 15.064876231 _16_ RTR  --- 9 DSR 68 [0 ffffffff 15 800] ------- [1:255 23:255 32 0] 3 [1 2] [0 2 0 0->16] [0 0 0 0->0]
r 15.064876231 _20_ RTR  --- 9 DSR 68 [0 ffffffff 15 800] ------- [1:255 23:255 32 0] 3 [1 2] [0 2 0 0->16] [0 0 0 0->0]
r 15.064876369 _15_ RTR  --- 9 DSR 68 [0 ffffffff 15 800] ------- [1:255 23:255 32 0] 3 [1 2] [0 2 0 0->16] [0 0 0 0->0]
r 15.064876564 _23_ RTR  --- 9 DSR 68 [0 ffffffff 15 800] ------- [1:255 23:255 32 0] 3 [1 2] [0 2 0 0->16] [0 0 0 0->0]
s 15.065212029 _23_ RTR  --- 16 DSR 60 [0 0 0 0] ------- [23:255 1:255 254 21] 4 [0 2] [1 2 4 1->23] [0 0 0 0->0]
r 15.066106564 _11_ RTR  --- 9 DSR 68 [0 ffffffff 10 800] ------- [1:255 23:255 32 0] 3 [1 2] [0 2 0 0->16] [0 0 0 0->0]
r 15.066106564 _15_ RTR  --- 9 DSR 68 [0 ffffffff 10 800] ------- [1:255 23:255 32 0] 3 [1 2] [0 2 0 0->16] [0 0 0 0->0]
r 15.066106564 _21_ RTR  --- 9 DSR 68 [0 ffffffff 10 800] ------- [1:255 23:255 32 0] 3 [1 2] [0 2 0 0->16] [0 0 0 0->0]
r 15.066106564 _17_ RTR  --- 9 DSR 68 [0 ffffffff 10 800] ------- [1:255 23:255 32 0] 3 [1 2] [0 2 0 0->16] [0 0 0 0->0]
r 15.066106702 _20_ RTR  --- 9 DSR 68 [0 ffffffff 10 800] ------- [1:255 23:255 32 0] 3 [1 2] [0 2 0 0->16] [0 0 0 0->0]
r 15.066106702 _10_ RTR  --- 9 DSR 68 [0 ffffffff 10 800] ------- [1:255 23:255 32 0] 3 [1 2] [0 2 0 0->16] [0 0 0 0->0]
r 15.066106702 _12_ RTR  --- 9 DSR 68 [0 ffffffff 10 800] ------- [1:255 23:255 32 0] 3 [1 2] [0 2 0 0->16] [0 0 0 0->0]
r 15.066106702 _22_ RTR  --- 9 DSR 68 [0 ffffffff 10 800] ------- [1:255 23:255 32 0] 3 [1 2] [0 2 0 0->16] [0 0 0 0->0]
r 15.066106898 _6_ RTR  --- 9 DSR 68 [0 ffffffff 10 800] ------- [1:255 23:255 32 0] 3 [1 2] [0 2 0 0->16] [0 0 0 0->0]
r 15.066106898 _18_ RTR  --- 9 DSR 68 [0 ffffffff 10 800] ------- [1:255 23:255 32 0] 3 [1 2] [0 2 0 0->16] [0 0 0 0->0]
r 15.066106976 _5_ RTR  --- 9 DSR 68 [0 ffffffff 10 800] ------- [1:255 23:255 32 0] 3 [1 2] [0 2 0 0->16] [0 0 0 0->0]
r 15.066106976 _7_ RTR  --- 9 DSR 68 [0 ffffffff 10 800] ------- [1:255 23:255 32 0] 3 [1 2] [0 2 0 0->16] [0 0 0 0->0]
r 15.066106976 _13_ RTR  --- 9 DSR 68 [0 ffffffff 10 800] ------- [1:255 23:255 32 0] 3 [1 2] [0 2 0 0->16] [0 0 0 0->0]
r 15.066106976 _23_ RTR  --- 9 DSR 68 [0 ffffffff 10 800] ------- [1:255 23:255 32 0] 3 [1 2] [0 2 0 0->16] [0 0 0 0->0]
r 15.067156898 _10_ RTR  --- 9 DSR 68 [0 ffffffff f 800] ------- [1:255 23:255 32 0] 3 [1 2] [0 2 0 0->16] [0 0 0 0->0]
r 15.067156898 _20_ RTR  --- 9 DSR 68 [0 ffffffff f 800] ------- [1:255 23:255 32 0] 3 [1 2] [0 2 0 0->16] [0 0 0 0->0]
r 15.067156898 _16_ RTR  --- 9 DSR 68 [0 ffffffff f 800] ------- [1:255 23:255 32 0] 3 [1 2] [0 2 0 0->16] [0 0 0 0->0]
r 15.067157036 _11_ RTR  --- 9 DSR 68 [0 ffffffff f 800] ------- [1:255 23:255 32 0] 3 [1 2] [0 2 0 0->16] [0 0 0 0->0]
r 15.067157036 _21_ RTR  --- 9 DSR 68 [0 ffffffff f 800] ------- [1:255 23:255 32 0] 3 [1 2] [0 2 0 0->16] [0 0 0 0->0]
r 15.067157231 _5_ RTR  --- 9 DSR 68 [0 ffffffff f 800] ------- [1:255 23:255 32 0] 3 [1 2] [0 2 0 0->16] [0 0 0 0->0]
r 15.067157231 _17_ RTR  --- 9 DSR 68 [0 ffffffff f 800] ------- [1:255 23:255 32 0] 3 [1 2] [0 2 0 0->16] [0 0 0 0->0]
r 15.067157310 _6_ RTR  --- 9 DSR 68 [0 ffffffff f 800] ------- [1:255 23:255 32 0] 3 [1 2] [0 2 0 0->16] [0 0 0 0->0]
r 15.067157310 _12_ RTR  --- 9 DSR 68 [0 ffffffff f 800] ------- [1:255 23:255 32 0] 3 [1 2] [0 2 0 0->16] [0 0 0 0->0]
r 15.067157310 _22_ RTR  --- 9 DSR 68 [0 ffffffff f 800] ------- [1:255 23:255 32 0] 3 [1 2] [0 2 0 0->16] [0 0 0 0->0]
r 15.068399231 _15_ RTR  --- 9 DSR 92 [0 ffffffff 14 800] ------- [1:255 23:255 32 0] 4 [1 2] [0 2 0 0->16] [0 0 0 0->0]
r 15.068399231 _21_ RTR  --- 9 DSR 92 [0 ffffffff 14 800] ------- [1:255 23:255 32 0] 4 [1 2] [0 2 0 0->16] [0 0 0 0->0]
r 15.068399369 _16_ RTR  --- 9 DSR 92 [0 ffffffff 14 800] ------- [1:255 23:255 32 0] 4 [1 2] [0 2 0 0->16] [0 0 0 0->0]
r 15.068399564 _10_ RTR  --- 9 DSR 92 [0 ffffffff 14 800] ------- [1:255 23:255 32 0] 4 [1 2] [0 2 0 0->16] [0 0 0 0->0]
r 15.068399564 _22_ RTR  --- 9 DSR 92 [0 ffffffff 14 800] ------- [1:255 23:255 32 0] 4 [1 2] [0 2 0 0->16] [0 0 0 0->0]
r 15.070087939 _0_ RTR  --- 9 DSR 48 [0 ffffffff 5 800] ------- [1:255 23:255 32 0] 2 [1 2] [0 2 0 0->16] [0 0 0 0->0]
r 15.070087939 _10_ RTR  --- 9 DSR 48 [0 ffffffff 5 800] ------- [1:255 23:255 32 0] 2 [1 2] [0 2 0 0->16] [0 0 0 0->0]
r 15.070087939 _6_ RTR  --- 9 DSR 48 [0 ffffffff 5 800] ------- [1:255 23:255 32 0] 2 [1 2] [0 2 0 0->16] [0 0 0 0->0]
r 15.070088077 _1_ RTR  --- 9 DSR 48 [0 ffffffff 5 800] ------- [1:255 23:255 32 0] 2 [1 2] [0 2 0 0->16] [0 0 0 0->0]
r 15.070088077 _11_ RTR  --- 9 DSR 48 [0 ffffffff 5 800] ------- [1:255 23:255 32 0] 2 [1 2] [0 2 0 0->16] [0 0 0 0->0]
r 15.070088272 _15_ RTR  --- 9 DSR 48 [0 ffffffff 5 800] ------- [1:255 23:255 32 0] 2 [1 2] [0 2 0 0->16] [0 0 0 0->0]
r 15.070088272 _7_ RTR  --- 9 DSR 48 [0 ffffffff 5 800] ------- [1:255 23:255 32 0] 2 [1 2] [0 2 0 0->16] [0 0 0 0->0]
r 15.070088351 _16_ RTR  --- 9 DSR 48 [0 ffffffff 5 800] ------- [1:255 23:255 32 0] 2 [1 2] [0 2 0 0->16] [0 0 0 0->0]
r 15.070088351 _2_ RTR  --- 9 DSR 48 [0 ffffffff 5 800] ------- [1:255 23:255 32 0] 2 [1 2] [0 2 0 0->16] [0 0 0 0->0]
r 15.070088351 _12_ RTR  --- 9 DSR 48 [0 ffffffff 5 800] ------- [1:255 23:255 32 0] 2 [1 2] [0 2 0 0->16] [0 0 0 0->0]
r 15.070870272 _5_ RTR  --- 13 DSR 32 [0 ffffffff 0 800] ------- [0:255 23:255 32 0] 1 [1 2] [0 2 0 0->16] [0 0 0 0->0]
r 15.070870272 _1_ RTR  --- 13 DSR 32 [0 ffffffff 0 800] ------- [0:255 23:255 32 0] 1 [1 2] [0 2 0 0->16] [0 0 0 0->0]
s 15.070870272 _1_ RTR  --- 18 DSR 56 [0 0 0 0] ------- [1:255 0:255 255 0] 2 [0 2] [1 2 5 0->23] [0 0 0 0->0]
r 15.070870410 _6_ RTR  --- 13 DSR 32 [0 ffffffff 0 800] ------- [0:255 23:255 32 0] 1 [1 2] [0 2 0 0->16] [0 0 0 0->0]
r 15.070870605 _10_ RTR  --- 13 DSR 32 [0 ffffffff 0 800] ------- [0:255 23:255 32 0] 1 [1 2] [0 2 0 0->16] [0 0 0 0->0]
r 15.070870605 _2_ RTR  --- 13 DSR 32 [0 ffffffff 0 800] ------- [0:255 23:255 32 0] 1 [1 2] [0 2 0 0->16] [0 0 0 0->0]
r 15.070870684 _11_ RTR  --- 13 DSR 32 [0 ffffffff 0 800] ------- [0:255 23:255 32 0] 1 [1 2] [0 2 0 0->16] [0 0 0 0->0]
r 15.070870684 _7_ RTR  --- 13 DSR 32 [0 ffffffff 0 800] ------- [0:255 23:255 32 0] 1 [1 2] [0 2 0 0->16] [0 0 0 0->0]
r 15.072115605 _19_ RTR  --- 9 DSR 92 [0 ffffffff 18 800] ------- [1:255 23:255 32 0] 4 [1 2] [0 2 0 0->16] [0 0 0 0->0]
r 15.072115605 _23_ RTR  --- 9 DSR 92 [0 ffffffff 18 800] ------- [1:255 23:255 32 0] 4 [1 2] [0 2 0 0->16] [0 0 0 0->0]
r 15.072115743 _18_ RTR  --- 9 DSR 92 [0 ffffffff 18 800] ------- [1:255 23:255 32 0] 4 [1 2] [0 2 0 0->16] [0 0 0 0->0]
r 15.072115939 _14_ RTR  --- 9 DSR 92 [0 ffffffff 18 800] ------- [1:255 23:255 32 0] 4 [1 2] [0 2 0 0->16] [0 0 0 0->0]
r 15.072115939 _22_ RTR  --- 9 DSR 92 [0 ffffffff 18 800] ------- [1:255 23:255 32 0] 4 [1 2] [0 2 0 0->16] [0 0 0 0->0]
r 15.072116017 _13_ RTR  --- 9 DSR 92 [0 ffffffff 18 800] ------- [1:255 23:255 32 0] 4 [1 2] [0 2 0 0->16] [0 0 0 0->0]
r 15.072116017 _17_ RTR  --- 9 DSR 92 [0 ffffffff 18 800] ------- [1:255 23:255 32 0] 4 [1 2] [0 2 0 0->16] [0 0 0 0->0]
s 15.072624822 _23_ RTR  --- 19 DSR 68 [0 0 0 0] ------- [23:255 1:255 254 24] 5 [0 2] [1 2 5 1->23] [0 0 0 0->0]
f 15.072943764 _11_ RTR  --- 13 DSR 48 [0 ffffffff 0 800] ------- [0:255 23:255 32 0] 2 [1 2] [0 2 0 0->16] [0 0 0 0->0]
r 15.073145939 _14_ RTR  --- 9 DSR 68 [0 ffffffff 13 800] ------- [1:255 23:255 32 0] 3 [1 2] [0 2 0 0->16] [0 0 0 0->0]