Sconfig 0.00000 tap: on snoop: rts? on errs? on
Sconfig 0.00000 salvage: on !bd replies? on
Sconfig 0.00000 grat error: on grat reply: on
Sconfig 0.00000 $reply for props: on ring 0 search: on
Sconfig 0.00000 using MOBICACHE
s 15.000000000 _0_ AGT  --- 0 cbr 512 [0 0 0 0] ------- [0:0 18:0 32 0] [0] 0 0
r 15.000000000 _0_ RTR  --- 0 cbr 512 [0 0 0 0] ------- [0:0 18:0 32 0] [0] 0 0
s 15.009488615 _0_ RTR  --- 1 DSR 32 [0 0 0 0] ------- [0:255 18:255 32 0] 1 [1 1] [0 1 0 0->0] [0 0 0 0->0]
r 15.010700949 _5_ RTR  --- 1 DSR 32 [0 ffffffff 0 800] ------- [0:255 18:255 32 0] 1 [1 1] [0 1 0 0->0] [0 0 0 0->0]
r 15.010700949 _1_ RTR  --- 1 DSR 32 [0 ffffffff 0 800] ------- [0:255 18:255 32 0] 1 [1 1] [0 1 0 0->0] [0 0 0 0->0]
r 15.010701087 _6_ RTR  --- 1 DSR 32 [0 ffffffff 0 800] ------- [0:255 18:255 32 0] 1 [1 1] [0 1 0 0->0] [0 0 0 0->0]
r 15.010701282 _10_ RTR  --- 1 DSR 32 [0 ffffffff 0 800] ------- [0:255 18:255 32 0] 1 [1 1] [0 1 0 0->0] [0 0 0 0->0]
r 15.010701282 _2_ RTR  --- 1 DSR 32 [0 ffffffff 0 800] ------- [0:255 18:255 32 0] 1 [1 1] [0 1 0 0->0] [0 0 0 0->0]
r 15.010701361 _11_ RTR  --- 1 DSR 32 [0 ffffffff 0 800] ------- [0:255 18:255 32 0] 1 [1 1] [0 1 0 0->0] [0 0 0 0->0]
r 15.010701361 _7_ RTR  --- 1 DSR 32 [0 ffffffff 0 800] ------- [0:255 18:255 32 0] 1 [1 1] [0 1 0 0->0] [0 0 0 0->0]
s 15.026033893 _0_ AGT  --- 2 cbr 512 [0 0 0 0] ------- [0:0 18:0 32 0] [1] 0 0
r 15.026033893 _0_ RTR  --- 2 cbr 512 [0 0 0 0] ------- [0:0 18:0 32 0] [1] 0 0
s 15.039006993 _0_ RTR  --- 4 DSR 32 [0 0 0 0] ------- [0:255 18:255 32 0] 1 [1 2] [0 2 0 0->16] [0 0 0 0->0]
r 15.039879326 _5_ RTR  --- 4 DSR 32 [0 ffffffff 0 800] ------- [0:255 18:255 32 0] 1 [1 2] [0 2 0 0->16] [0 0 0 0->0]
r 15.039879326 _1_ RTR  --- 4 DSR 32 [0 ffffffff 0 800] ------- [0:255 18:255 32 0] 1 [1 2] [0 2 0 0->16] [0 0 0 0->0]
r 15.039879464 _6_ RTR  --- 4 DSR 32 [0 ffffffff 0 800] ------- [0:255 18:255 32 0] 1 [1 2] [0 2 0 0->16] [0 0 0 0->0]
r 15.039879659 _10_ RTR  --- 4 DSR 32 [0 ffffffff 0 800] ------- [0:255 18:255 32 0] 1 [1 2] [0 2 0 0->16] [0 0 0 0->0]
r 15.039879659 _2_ RTR  --- 4 DSR 32 [0 ffffffff 0 800] ------- [0:255 18:255 32 0] 1 [1 2] [0 2 0 0->16] [0 0 0 0->0]
r 15.039879738 _11_ RTR  --- 4 DSR 32 [0 ffffffff 0 800] ------- [0:255 18:255 32 0] 1 [1 2] [0 2 0 0->16] [0 0 0 0->0]
r 15.039879738 _7_ RTR  --- 4 DSR 32 [0 ffffffff 0 800] ------- [0:255 18:255 32 0] 1 [1 2] [0 2 0 0->16] [0 0 0 0->0]
f 15.043455086 _6_ RTR  --- 4 DSR 48 [0 ffffffff 0 800] ------- [0:255 18:255 32 0] 2 [1 2] [0 2 0 0->16] [0 0 0 0->0]
r 15.044675420 _1_ RTR  --- 4 DSR 48 [0 ffffffff 6 800] ------- [0:255 18:255 32 0] 2 [1 2] [0 2 0 0->16] [0 0 0 0->0]
r 15.044675420 _5_ RTR  --- 4 DSR 48 [0 ffffffff 6 800] ------- [0:255 18:255 32 0] 2 [1 2] [0 2 0 0->16] [0 0 0 0->0]
r 15.044675420 _11_ RTR  --- 4 DSR 48 [0 ffffffff 6 800] ------- [0:255 18:255 32 0] 2 [1 2] [0 2 0 0->16] [0 0 0 0->0]
r 15.044675420 _7_ RTR  --- 4 DSR 48 [0 ffffffff 6 800] ------- [0:255 18:255 32 0] 2 [1 2] [0 2 0 0->16] [0 0 0 0->0]
r 15.044675558 _10_ RTR  --- 4 DSR 48 [0 ffffffff 6 800] ------- [0:255 18:255 32 0] 2 [1 2] [0 2 0 0->16] [0 0 0 0->0]
r 15.044675558 _0_ RTR  --- 4 DSR 48 [0 ffffffff 6 800] ------- [0:255 18:255 32 0] 2 [1 2] [0 2 0 0->16] [0 0 0 0->0]
r 15.044675558 _2_ RTR  --- 4 DSR 48 [0 ffffffff 6 800] ------- [0:255 18:255 32 0] 2 [1 2] [0 2 0 0->16] [0 0 0 0->0]
r 15.044675558 _12_ RTR  --- 4 DSR 48 [0 ffffffff 6 800] ------- [0:255 18:255 32 0] 2 [1 2] [0 2 0 0->16] [0 0 0 0->0]
r 15.044675753 _16_ RTR  --- 4 DSR 48 [0 ffffffff 6 800] ------- [0:255 18:255 32 0] 2 [1 2] [0 2 0 0->16] [0 0 0 0->0]
r 15.044675753 _8_ RTR  --- 4 DSR 48 [0 ffffffff 6 800] ------- [0:255 18:255 32 0] 2 [1 2] [0 2 0 0->16] [0 0 0 0->0]
r 15.044675832 _15_ RTR  --- 4 DSR 48 [0 ffffffff 6 800] ------- [0:255 18:255 32 0] 2 [1 2] [0 2 0 0->16] [0 0 0 0->0]
r 15.044675832 _17_ RTR  --- 4 DSR 48 [0 ffffffff 6 800] ------- [0:255 18:255 32 0] 2 [1 2] [0 2 0 0->16] [0 0 0 0->0]
r 15.044675832 _3_ RTR  --- 4 DSR 48 [0 ffffffff 6 800] ------- [0:255 18:255 32 0] 2 [1 2] [0 2 0 0->16] [0 0 0 0->0]
r 15.044675832 _13_ RTR  --- 4 DSR 48 [0 ffffffff 6 800] ------- [0:255 18:255 32 0] 2 [1 2] [0 2 0 0->16] [0 0 0 0->0]
f 15.044819058 _17_ RTR  --- 4 DSR 68 [0 ffffffff 6 800] ------- [0:255 18:255 32 0] 3 [1 2] [0 2 0 0->16] [0 0 0 0->0]
f 15.045815206 _12_ RTR  --- 4 DSR 68 [0 ffffffff 6 800] ------- [0:255 18:255 32 0] 3 [1 2] [0 2 0 0->16] [0 0 0 0->0]
f 15.046236540 _7_ RTR  --- 4 DSR 48 [0 ffffffff 0 800] ------- [0:255 18:255 32 0] 2 [1 2] [0 2 0 0->16] [0 0 0 0->0]
r 15.046279391 _12_ RTR  --- 4 DSR 68 [0 ffffffff 11 800] ------- [0:255 18:255 32 0] 3 [1 2] [0 2 0 0->16] [0 0 0 0->0]
r 15.046279391 _16_ RTR  --- 4 DSR 68 [0 ffffffff 11 800] ------- [0:255 18:255 32 0] 3 [1 2] [0 2 0 0->16] [0 0 0 0->0]
r 15.046279391 _18_ RTR  --- 4 DSR 68 [0 ffffffff 11 800] ------- [0:255 18:255 32 0] 3 [1 2] [0 2 0 0->16] [0 0 0 0->0]
r 15.046279530 _11_ RTR  --- 4 DSR 68 [0 ffffffff 11 800] ------- [0:255 18:255 32 0] 3 [1 2] [0 2 0 0->16] [0 0 0 0->0]
r 15.046279530 _13_ RTR  --- 4 DSR 68 [0 ffffffff 11 800] ------- [0:255 18:255 32 0] 3 [1 2] [0 2 0 0->16] [0 0 0 0->0]
r 15.046279725 _7_ RTR  --- 4 DSR 68 [0 ffffffff 11 800] ------- [0:255 18:255 32 0] 3 [1 2] [0 2 0 0->16] [0 0 0 0->0]
r 15.046279725 _15_ RTR  --- 4 DSR 68 [0 ffffffff 11 800] ------- [0:255 18:255 32 0] 3 [1 2] [0 2 0 0->16] [0 0 0 0->0]
r 15.046279725 _19_ RTR  --- 4 DSR 68 [0 ffffffff 11 800] ------- [0:255 18:255 32 0] 3 [1 2] [0 2 0 0->16] [0 0 0 0->0]
r 15.046279803 _6_ RTR  --- 4 DSR 68 [0 ffffffff 11 800] ------- [0:255 18:255 32 0] 3 [1 2] [0 2 0 0->16] [0 0 0 0->0]
r 15.046279803 _10_ RTR  --- 4 DSR 68 [0 ffffffff 11 800] ------- [0:255 18:255 32 0] 3 [1 2] [0 2 0 0->16] [0 0 0 0->0]
r 15.046279803 _8_ RTR  --- 4 DSR 68 [0 ffffffff 11 800] ------- [0:255 18:255 32 0] 3 [1 2] [0 2 0 0->16] [0 0 0 0->0]
r 15.046279803 _14_ RTR  --- 4 DSR 68 [0 ffffffff 11 800] ------- [0:255 18:255 32 0] 3 [1 2] [0 2 0 0->16] [0 0 0 0->0]
f 15.046343305 _2_ RTR  --- 4 DSR 48 [0 ffffffff 0 800] ------- [0:255 18:255 32 0] 2 [1 2] [0 2 0 0->16] [0 0 0 0->0]
r 15.047729725 _7_ RTR  --- 4 DSR 68 [0 ffffffff c 800] ------- [0:255 18:255 32 0] 3 [1 2] [0 2 0 0->16] [0 0 0 0->0]
r 15.047729725 _11_ RTR  --- 4 DSR 68 [0 ffffffff c 800] ------- [0:255 18:255 32 0] 3 [1 2] [0 2 0 0->16] [0 0 0 0->0]
r 15.047729725 _17_ RTR  --- 4 DSR 68 [0 ffffffff c 800] ------- [0:255 18:255 32 0] 3 [1 2] [0 2 0 0->16] [0 0 0 0->0]
r 15.047729725 _13_ RTR  --- 4 DSR 68 [0 ffffffff c 800] ------- [0:255 18:255 32 0] 3 [1 2] [0 2 0 0->16] [0 0 0 0->0]
r 15.047729863 _16_ RTR  --- 4 DSR 68 [0 ffffffff c 800] ------- [0:255 18:255 32 0] 3 [1 2] [0 2 0 0->16] [0 0 0 0->0]
r 15.047729863 _6_ RTR  --- 4 DSR 68 [0 ffffffff c 800] ------- [0:255 18:255 32 0] 3 [1 2] [0 2 0 0->16] [0 0 0 0->0]
r 15.047729863 _8_ RTR  --- 4 DSR 68 [0 ffffffff c 800] ------- [0:255 18:255 32 0] 3 [1 2] [0 2 0 0->16] [0 0 0 0->0]
r 15.047729863 _18_ RTR  --- 4 DSR 68 [0 ffffffff c 800] ------- [0:255 18:255 32 0] 3 [1 2] [0 2 0 0->16] [0 0 0 0->0]
r 15.047730058 _2_ RTR  --- 4 DSR 68 [0 ffffffff c 800] ------- [0:255 18:255 32 0] 3 [1 2] [0 2 0 0->16] [0 0 0 0->0]
r 15.047730058 _10_ RTR  --- 4 DSR 68 [0 ffffffff c 800] ------- [0:255 18:255 32 0] 3 [1 2] [0 2 0 0->16] [0 0 0 0->0]
r 15.047730058 _14_ RTR  --- 4 DSR 68 [0 ffffffff c 800] ------- [0:255 18:255 32 0] 3 [1 2] [0 2 0 0->16] [0 0 0 0->0]
r 15.047730137 _1_ RTR  --- 4 DSR 68 [0 ffffffff c 800] ------- [0:255 18:255 32 0] 3 [1 2] [0 2 0 0->16] [0 0 0 0->0]
r 15.047730137 _15_ RTR  --- 4 DSR 68 [0 ffffffff c 800] ------- [0:255 18:255 32 0] 3 [1 2] [0 2 0 0->16] [0 0 0 0->0]
r 15.047730137 _5_ RTR  --- 4 DSR 68 [0 ffffffff c 800] ------- [0:255 18:255 32 0] 3 [1 2] [0 2 0 0->16] [0 0 0 0->0]
r 15.047730137 _3_ RTR  --- 4 DSR 68 [0 ffffffff c 800] ------- [0:255 18:255 32 0] 3 [1 2] [0 2 0 0->16] [0 0 0 0->0]
r 15.047730137 _9_ RTR  --- 4 DSR 68 [0 ffffffff c 800] ------- [0:255 18:255 32 0] 3 [1 2] [0 2 0 0->16] [0 0 0 0->0]
r 15.047730137 _19_ RTR  --- 4 DSR 68 [0 ffffffff c 800] ------- [0:255 18:255 32 0] 3 [1 2] [0 2 0 0->16] [0 0 0 0->0]
f 15.048247873 _10_ RTR  --- 4 DSR 48 [0 ffffffff 0 800] ------- [0:255 18:255 32 0] 2 [1 2] [0 2 0 0->16] [0 0 0 0->0]
f 15.048465450 _5_ RTR  --- 4 DSR 48 [0 ffffffff 0 800] ------- [0:255 18:255 32 0] 2 [1 2] [0 2 0 0->16] [0 0 0 0->0]
f 15.048533149 _13_ RTR  --- 4 DSR 68 [0 ffffffff 6 800] ------- [0:255 18:255 32 0] 3 [1 2] [0 2 0 0->16] [0 0 0 0->0]
f 15.048552490 _1_ RTR  --- 4 DSR 48 [0 ffffffff 0 800] ------- [0:255 18:255 32 0] 2 [1 2] [0 2 0 0->16] [0 0 0 0->0]
r 15.048700058 _2_ RTR  --- 4 DSR 48 [0 ffffffff 7 800] ------- [0:255 18:255 32 0] 2 [1 2] [0 2 0 0->16] [0 0 0 0->0]
r 15.048700058 _6_ RTR  --- 4 DSR 48 [0 ffffffff 7 800] ------- [0:255 18:255 32 0] 2 [1 2] [0 2 0 0->16] [0 0 0 0->0]
r 15.048700058 _12_ RTR  --- 4 DSR 48 [0 ffffffff 7 800] ------- [0:255 18:255 32 0] 2 [1 2] [0 2 0 0->16] [0 0 0 0->0]
r 15.048700058 _8_ RTR  --- 4 DSR 48 [0 ffffffff 7 800] ------- [0:255 18:255 32 0] 2 [1 2] [0 2 0 0->16] [0 0 0 0->0]
r 15.048700196 _11_ RTR  --- 4 DSR 48 [0 ffffffff 7 800] ------- [0:255 18:255 32 0] 2 [1 2] [0 2 0 0->16] [0 0 0 0->0]
r 15.048700196 _1_ RTR  --- 4 DSR 48 [0 ffffffff 7 800] ------- [0:255 18:255 32 0] 2 [1 2] [0 2 0 0->16] [0 0 0 0->0]
r 15.048700196 _3_ RTR  --- 4 DSR 48 [0 ffffffff 7 800] ------- [0:255 18:255 32 0] 2 [1 2] [0 2 0 0->16] [0 0 0 0->0]
r 15.048700196 _13_ RTR  --- 4 DSR 48 [0 ffffffff 7 800] ------- [0:255 18:255 32 0] 2 [1 2] [0 2 0 0->16] [0 0 0 0->0]
r 15.048700391 _5_ RTR  --- 4 DSR 48 [0 ffffffff 7 800] ------- [0:255 18:255 32 0] 2 [1 2] [0 2 0 0->16] [0 0 0 0->0]
r 15.048700391 _17_ RTR  --- 4 DSR 48 [0 ffffffff 7 800] ------- [0:255 18:255 32 0] 2 [1 2] [0 2 0 0->16] [0 0 0 0->0]
r 15.048700391 _9_ RTR  --- 4 DSR 48 [0 ffffffff 7 800] ------- [0:255 18:255 32 0] 2 [1 2] [0 2 0 0->16] [0 0 0 0->0]
r 15.048700470 _16_ RTR  --- 4 DSR 48 [0 ffffffff 7 800] ------- [0:255 18:255 32 0] 2 [1 2] [0 2 0 0->16] [0 0 0 0->0]
r 15.048700470 _10_ RTR  --- 4 DSR 48 [0 ffffffff 7 800] ------- [0:255 18:255 32 0] 2 [1 2] [0 2 0 0->16] [0 0 0 0->0]
r 15.048700470 _0_ RTR  --- 4 DSR 48 [0 ffffffff 7 800] ------- [0:255 18:255 32 0] 2 [1 2] [0 2 0 0->16] [0 0 0 0->0]
r 15.048700470 _18_ RTR  --- 4 DSR 48 [0 ffffffff 7 800] ------- [0:255 18:255 32 0] 2 [1 2] [0 2 0 0->16] [0 0 0 0->0]
r 15.048700470 _4_ RTR  --- 4 DSR 48 [0 ffffffff 7 800] ------- [0:255 18:255 32 0] 2 [1 2] [0 2 0 0->16] [0 0 0 0->0]
r 15.048700470 _14_ RTR  --- 4 DSR 48 [0 ffffffff 7 800] ------- [0:255 18:255 32 0] 2 [1 2] [0 2 0 0->16] [0 0 0 0->0]
f 15.048716101 _4_ RTR  --- 4 DSR 68 [0 ffffffff 7 800] ------- [0:255 18:255 32 0] 3 [1 2] [0 2 0 0->16] [0 0 0 0->0]
f 15.048924141 _15_ RTR  --- 4 DSR 68 [0 ffffffff 6 800] ------- [0:255 18:255 32 0] 3 [1 2] [0 2 0 0->16] [0 0 0 0->0]
f 15.048954372 _11_ RTR  --- 4 DSR 48 [0 ffffffff 0 800] ------- [0:255 18:255 32 0] 2 [1 2] [0 2 0 0->16] [0 0 0 0->0]
f 15.049453930 _3_ RTR  --- 4 DSR 68 [0 ffffffff 6 800] ------- [0:255 18:255 32 0] 3 [1 2] [0 2 0 0->16] [0 0 0 0->0]
r 15.049710530 _8_ RTR  --- 4 DSR 68 [0 ffffffff d 800] ------- [0:255 18:255 32 0] 3 [1 2] [0 2 0 0->16] [0 0 0 0->0]
r 15.049710530 _12_ RTR  --- 4 DSR 68 [0 ffffffff d 800] ------- [0:255 18:255 32 0] 3 [1 2] [0 2 0 0->16] [0 0 0 0->0]
r 15.049710530 _18_ RTR  --- 4 DSR 68 [0 ffffffff d 800] ------- [0:255 18:255 32 0] 3 [1 2] [0 2 0 0->16] [0 0 0 0->0]
r 15.049710530 _14_ RTR  --- 4 DSR 68 [0 ffffffff d 800] ------- [0:255 18:255 32 0] 3 [1 2] [0 2 0 0->16] [0 0 0 0->0]
r 15.049710668 _17_ RTR  --- 4 DSR 68 [0 ffffffff d 800] ------- [0:255 18:255 32 0] 3 [1 2] [0 2 0 0->16] [0 0 0 0->0]
r 15.049710668 _7_ RTR  --- 4 DSR 68 [0 ffffffff d 800] ------- [0:255 18:255 32 0] 3 [1 2] [0 2 0 0->16] [0 0 0 0->0]
r 15.049710668 _9_ RTR  --- 4 DSR 68 [0 ffffffff d 800] ------- [0:255 18:255 32 0] 3 [1 2] [0 2 0 0->16] [0 0 0 0->0]
r 15.049710668 _19_ RTR  --- 4 DSR 68 [0 ffffffff d 800] ------- [0:255 18:255 32 0] 3 [1 2] [0 2 0 0->16] [0 0 0 0->0]
r 15.049710863 _3_ RTR  --- 4 DSR 68 [0 ffffffff d 800] ------- [0:255 18:255 32 0] 3 [1 2] [0 2 0 0->16] [0 0 0 0->0]
r 15.049710863 _11_ RTR  --- 4 DSR 68 [0 ffffffff d 800] ------- [0:255 18:255 32 0] 3 [1 2] [0 2 0 0->16] [0 0 0 0->0]
r 15.049710942 _2_ RTR  --- 4 DSR 68 [0 ffffffff d 800] ------- [0:255 18:255 32 0] 3 [1 2] [0 2 0 0->16] [0 0 0 0->0]
r 15.049710942 _16_ RTR  --- 4 DSR 68 [0 ffffffff d 800] ------- [0:255 18:255 32 0] 3 [1 2] [0 2 0 0->16] [0 0 0 0->0]
r 15.049710942 _6_ RTR  --- 4 DSR 68 [0 ffffffff d 800] ------- [0:255 18:255 32 0] 3 [1 2] [0 2 0 0->16] [0 0 0 0->0]
r 15.049710942 _4_ RTR  --- 4 DSR 68 [0 ffffffff d 800] ------- [0:255 18:255 32 0] 3 [1 2] [0 2 0 0->16] [0 0 0 0->0]
r 15.050721275 _3_ RTR  --- 4 DSR 68 [0 ffffffff 4 800] ------- [0:255 18:255 32 0] 3 [1 2] [0 2 0 0->16] [0 0 0 0->0]
r 15.050721275 _9_ RTR  --- 4 DSR 68 [0 ffffffff 4 800] ------- [0:255 18:255 32 0] 3 [1 2] [0 2 0 0->16] [0 0 0 0->0]
r 15.050721413 _8_ RTR  --- 4 DSR 68 [0 ffffffff 4 800] ------- [0:255 18:255 32 0] 3 [1 2] [0 2 0 0->16] [0 0 0 0->0]
r 15.050721608 _2_ RTR  --- 4 DSR 68 [0 ffffffff 4 800] ------- [0:255 18:255 32 0] 3 [1 2] [0 2 0 0->16] [0 0 0 0->0]
r 15.050721608 _14_ RTR  --- 4 DSR 68 [0 ffffffff 4 800] ------- [0:255 18:255 32 0] 3 [1 2] [0 2 0 0->16] [0 0 0 0->0]
r 15.050721687 _13_ RTR  --- 4 DSR 68 [0 ffffffff 4 800] ------- [0:255 18:255 32 0] 3 [1 2] [0 2 0 0->16] [0 0 0 0->0]
r 15.050721687 _7_ RTR  --- 4 DSR 68 [0 ffffffff 4 800] ------- [0:255 18:255 32 0] 3 [1 2] [0 2 0 0->16] [0 0 0 0->0]
r 15.051931608 _2_ RTR  --- 4 DSR 68 [0 ffffffff 3 800] ------- [0:255 18:255 32 0] 3 [1 2] [0 2 0 0->16] [0 0 0 0->0]
r 15.051931608 _8_ RTR  --- 4 DSR 68 [0 ffffffff 3 800] ------- [0:255 18:255 32 0] 3 [1 2] [0 2 0 0->16] [0 0 0 0->0]
r 15.051931608 _4_ RTR  --- 4 DSR 68 [0 ffffffff 3 800] ------- [0:255 18:255 32 0] 3 [1 2] [0 2 0 0->16] [0 0 0 0->0]
r 15.051931746 _7_ RTR  --- 4 DSR 68 [0 ffffffff 3 800] ------- [0:255 18:255 32 0] 3 [1 2] [0 2 0 0->16] [0 0 0 0->0]
r 15.051931746 _9_ RTR  --- 4 DSR 68 [0 ffffffff 3 800] ------- [0:255 18:255 32 0] 3 [1 2] [0 2 0 0->16] [0 0 0 0->0]
r 15.051931942 _1_ RTR  --- 4 DSR 68 [0 ffffffff 3 800] ------- [0:255 18:255 32 0] 3 [1 2] [0 2 0 0->16] [0 0 0 0->0]
r 15.051931942 _13_ RTR  --- 4 DSR 68 [0 ffffffff 3 800] ------- [0:255 18:255 32 0] 3 [1 2] [0 2 0 0->16] [0 0 0 0->0]
r 15.051932020 _12_ RTR  --- 4 DSR 68 [0 ffffffff 3 800] ------- [0:255 18:255 32 0] 3 [1 2] [0 2 0 0->16] [0 0 0 0->0]
r 15.051932020 _6_ RTR  --- 4 DSR 68 [0 ffffffff 3 800] ------- [0:255 18:255 32 0] 3 [1 2] [0 2 0 0->16] [0 0 0 0->0]
r 15.051932020 _14_ RTR  --- 4 DSR 68 [0 ffffffff 3 800] ------- [0:255 18:255 32 0] 3 [1 2] [0 2 0 0->16] [0 0 0 0->0]
s 15.052642369 _18_ RTR  --- 6 DSR 60 [0 0 0 0] ------- [18:255 0:255 254 17] 4 [0 2] [1 2 4 0->18] [0 0 0 0->0]
r 15.052901942 _1_ RTR  --- 4 DSR 48 [0 ffffffff 2 800] ------- [0:255 18:255 32 0] 2 [1 2] [0 2 0 0->16] [0 0 0 0->0]
r 15.052901942 _7_ RTR  --- 4 DSR 48 [0 ffffffff 2 800] ------- [0:255 18:255 32 0] 2 [1 2] [0 2 0 0->16] [0 0 0 0->0]
r 15.052901942 _3_ RTR  --- 4 DSR 48 [0 ffffffff 2 800] ------- [0:255 18:255 32 0] 2 [1 2] [0 2 0 0->16] [0 0 0 0->0]
r 15.052902080 _6_ RTR  --- 4 DSR 48 [0 ffffffff 2 800] ------- [0:255 18:255 32 0] 2 [1 2] [0 2 0 0->16] [0 0 0 0->0]
r 15.052902080 _8_ RTR  --- 4 DSR 48 [0 ffffffff 2 800] ------- [0:255 18:255 32 0] 2 [1 2] [0 2 0 0->16] [0 0 0 0->0]
r 15.052902275 _0_ RTR  --- 4 DSR 48 [0 ffffffff 2 800] ------- [0:255 18:255 32 0] 2 [1 2] [0 2 0 0->16] [0 0 0 0->0]
r 15.052902275 _12_ RTR  --- 4 DSR 48 [0 ffffffff 2 800] ------- [0:255 18:255 32 0] 2 [1 2] [0 2 0 0->16] [0 0 0 0->0]
r 15.052902275 _4_ RTR  --- 4 DSR 48 [0 ffffffff 2 800] ------- [0:255 18:255 32 0] 2 [1 2] [0 2 0 0->16] [0 0 0 0->0]
r 15.052902354 _11_ RTR  --- 4 DSR 48 [0 ffffffff 2 800] ------- [0:255 18:255 32 0] 2 [1 2] [0 2 0 0->16] [0 0 0 0->0]
r 15.052902354 _5_ RTR  --- 4 DSR 48 [0 ffffffff 2 800] ------- [0:255 18:255 32 0] 2 [1 2] [0 2 0 0->16] [0 0 0 0->0]
r 15.052902354 _13_ RTR  --- 4 DSR 48 [0 ffffffff 2 800] ------- [0:255 18:255 32 0] 2 [1 2] [0 2 0 0->16] [0 0 0 0->0]
r 15.052902354 _9_ RTR  --- 4 DSR 48 [0 ffffffff 2 800] ------- [0:255 18:255 32 0] 2 [1 2] [0 2 0 0->16] [0 0 0 0->0]
f 15.052939416 _16_ RTR  --- 4 DSR 68 [0 ffffffff 6 800] ------- [0:255 18:255 32 0] 3 [1 2] [0 2 0 0->16] [0 0 0 0->0]
r 15.053792687 _6_ RTR  --- 4 DSR 48 [0 ffffffff b 800] ------- [0:255 18:255 32 0] 2 [1 2] [0 2 0 0->16] [0 0 0 0->0]
r 15.053792687 _10_ RTR  --- 4 DSR 48 [0 ffffffff b 800] ------- [0:255 18:255 32 0] 2 [1 2] [0 2 0 0->16] [0 0 0 0->0]
r 15.053792687 _16_ RTR  --- 4 DSR 48 [0 ffffffff b 800] ------- [0:255 18:255 32 0] 2 [1 2] [0 2 0 0->16] [0 0 0 0->0]
r 15.053792687 _12_ RTR  --- 4 DSR 48 [0 ffffffff b 800] ------- [0:255 18:255 32 0] 2 [1 2] [0 2 0 0->16] [0 0 0 0->0]
r 15.053792825 _15_ RTR  --- 4 DSR 48 [0 ffffffff b 800] ------- [0:255 18:255 32 0] 2 [1 2] [0 2 0 0->16] [0 0 0 0->0]
r 15.053792825 _5_ RTR  --- 4 DSR 48 [0 ffffffff b 800] ------- [0:255 18:255 32 0] 2 [1 2] [0 2 0 0->16] [0 0 0 0->0]
r 15.053792825 _7_ RTR  --- 4 DSR 48 [0 ffffffff b 800] ------- [0:255 18:255 32 0] 2 [1 2] [0 2 0 0->16] [0 0 0 0->0]
r 15.053792825 _17_ RTR  --- 4 DSR 48 [0 ffffffff b 800] ------- [0:255 18:255 32 0] 2 [1 2] [0 2 0 0->16] [0 0 0 0->0]
r 15.053793020 _1_ RTR  --- 4 DSR 48 [0 ffffffff b 800] ------- [0:255 18:255 32 0] 2 [1 2] [0 2 0 0->16] [0 0 0 0->0]
r 15.053793020 _13_ RTR  --- 4 DSR 48 [0 ffffffff b 800] ------- [0:255 18:255 32 0] 2 [1 2] [0 2 0 0->16] [0 0 0 0->0]
r 15.053793099 _0_ RTR  --- 4 DSR 48 [0 ffffffff b 800] ------- [0:255 18:255 32 0] 2 [1 2] [0 2 0 0->16] [0 0 0 0->0]
r 15.053793099 _2_ RTR  --- 4 DSR 48 [0 ffffffff b 800] ------- [0:255 18:255 32 0] 2 [1 2] [0 2 0 0->16] [0 0 0 0->0]
r 15.053793099 _8_ RTR  --- 4 DSR 48 [0 ffffffff b 800] ------- [0:255 18:255 32 0] 2 [1 2] [0 2 0 0->16] [0 0 0 0->0]
r 15.053793099 _18_ RTR  --- 4 DSR 48 [0 ffffffff b 800] ------- [0:255 18:255 32 0] 2 [1 2] [0 2 0 0->16] [0 0 0 0->0]
f 15.054275041 _8_ RTR  --- 4 DSR 68 [0 ffffffff 6 800] ------- [0:255 18:255 32 0] 3 [1 2] [0 2 0 0->16] [0 0 0 0->0]
r 15.054803020 _11_ RTR  --- 4 DSR 68 [0 ffffffff 10 800] ------- [0:255 18:255 32 0] 3 [1 2] [0 2 0 0->16] [0 0 0 0->0]
r 15.054803020 _15_ RTR  --- 4 DSR 68 [0 ffffffff 10 800] ------- [0:255 18:255 32 0] 3 [1 2] [0 2 0 0->16] [0 0 0 0->0]
r 15.054803020 _17_ RTR  --- 4 DSR 68 [0 ffffffff 10 800] ------- [0:255 18:255 32 0] 3 [1 2] [0 2 0 0->16] [0 0 0 0->0]
r 15.054803158 _10_ RTR  --- 4 DSR 68 [0 ffffffff 10 800] ------- [0:255 18:255 32 0] 3 [1 2] [0 2 0 0->16] [0 0 0 0->0]
r 15.054803158 _12_ RTR  --- 4 DSR 68 [0 ffffffff 10 800] ------- [0:255 18:255 32 0] 3 [1 2] [0 2 0 0->16] [0 0 0 0->0]
r 15.054803354 _6_ RTR  --- 4 DSR 68 [0 ffffffff 10 800] ------- [0:255 18:255 32 0] 3 [1 2] [0 2 0 0->16] [0 0 0 0->0]
r 15.054803354 _18_ RTR  --- 4 DSR 68 [0 ffffffff 10 800] ------- [0:255 18:255 32 0] 3 [1 2] [0 2 0 0->16] [0 0 0 0->0]
r 15.054803432 _5_ RTR  --- 4 DSR 68 [0 ffffffff 10 800] ------- [0:255 18:255 32 0] 3 [1 2] [0 2 0 0->16] [0 0 0 0->0]
r 15.054803432 _7_ RTR  --- 4 DSR 68 [0 ffffffff 10 800] ------- [0:255 18:255 32 0] 3 [1 2] [0 2 0 0->16] [0 0 0 0->0]
r 15.054803432 _13_ RTR  --- 4 DSR 68 [0 ffffffff 10 800] ------- [0:255 18:255 32 0] 3 [1 2] [0 2 0 0->16] [0 0 0 0->0]
f 15.054847206 _14_ RTR  --- 4 DSR 92 [0 ffffffff 11 800] ------- [0:255 18:255 32 0] 4 [1 2] [0 2 0 0->16] [0 0 0 0->0]
s 15.054990959 _18_ RTR  --- 7 DSR 60 [0 0 0 0] ------- [18:255 0:255 254 12] 4 [0 2] [1 2 4 0->18] [0 0 0 0->0]
s 15.055552356 _18_ RTR  --- 10 DSR 52 [0 0 0 0] ------- [18:255 0:255 254 11] 3 [0 2] [1 2 3 0->18] [0 0 0 0->0]
f 15.055782297 _19_ RTR  --- 4 DSR 92 [0 ffffffff 11 800] ------- [0:255 18:255 32 0] 4 [1 2] [0 2 0 0->16] [0 0 0 0->0]
r 15.055973354 _10_ RTR  --- 4 DSR 68 [0 ffffffff f 800] ------- [0:255 18:255 32 0] 3 [1 2] [0 2 0 0->16] [0 0 0 0->0]
r 15.055973354 _16_ RTR  --- 4 DSR 68 [0 ffffffff f 800] ------- [0:255 18:255 32 0] 3 [1 2] [0 2 0 0->16] [0 0 0 0->0]
r 15.055973492 _11_ RTR  --- 4 DSR 68 [0 ffffffff f 800] ------- [0:255 18:255 32 0] 3 [1 2] [0 2 0 0->16] [0 0 0 0->0]
r 15.055973687 _5_ RTR  --- 4 DSR 68 [0 ffffffff f 800] ------- [0:255 18:255 32 0] 3 [1 2] [0 2 0 0->16] [0 0 0 0->0]
r 15.055973687 _17_ RTR  --- 4 DSR 68 [0 ffffffff f 800] ------- [0:255 18:255 32 0] 3 [1 2] [0 2 0 0->16] [0 0 0 0->0]
r 15.055973766 _6_ RTR  --- 4 DSR 68 [0 ffffffff f 800] ------- [0:255 18:255 32 0] 3 [1 2] [0 2 0 0->16] [0 0 0 0->0]
r 15.055973766 _12_ RTR  --- 4 DSR 68 [0 ffffffff f 800] ------- [0:255 18:255 32 0] 3 [1 2] [0 2 0 0->16] [0 0 0 0->0]
f 15.056325472 _9_ RTR  --- 4 DSR 92 [0 ffffffff c 800] ------- [0:255 18:255 32 0] 4 [1 2] [0 2 0 0->16] [0 0 0 0->0]
s 15.057012768 _18_ RTR  --- 9 DSR 60 [0 0 0 0] ------- [18:255 0:255 254 13] 4 [0 2] [1 2 4 0->18] [0 0 0 0->0]
r 15.057124020 _0_ RTR  --- 4 DSR 48 [0 ffffffff 5 800] ------- [0:255 18:255 32 0] 2 [1 2] [0 2 0 0->16] [0 0 0 0->0]
r 15.057124020 _10_ RTR  --- 4 DSR 48 [0 ffffffff 5 800] ------- [0:255 18:255 32 0] 2 [1 2] [0 2 0 0->16] [0 0 0 0->0]
r 15.057124020 _6_ RTR  --- 4 DSR 48 [0 ffffffff 5 800] ------- [0:255 18:255 32 0] 2 [1 2] [0 2 0 0->16] [0 0 0 0->0]
r 15.057124158 _1_ RTR  --- 4 DSR 48 [0 ffffffff 5 800] ------- [0:255 18:255 32 0] 2 [1 2] [0 2 0 0->16] [0 0 0 0->0]
r 15.057124158 _11_ RTR  --- 4 DSR 48 [0 ffffffff 5 800] ------- [0:255 18:255 32 0] 2 [1 2] [0 2 0 0->16] [0 0 0 0->0]
r 15.057124354 _15_ RTR  --- 4 DSR 48 [0 ffffffff 5 800] ------- [0:255 18:255 32 0] 2 [1 2] [0 2 0 0->16] [0 0 0 0->0]
r 15.057124354 _7_ RTR  --- 4 DSR 48 [0 ffffffff 5 800] ------- [0:255 18:255 32 0] 2 [1 2] [0 2 0 0->16] [0 0 0 0->0]
r 15.057124432 _16_ RTR  --- 4 DSR 48 [0 ffffffff 5 800] ------- [0:255 18:255 32 0] 2 [1 2] [0 2 0 0->16] [0 0 0 0->0]
r 15.057124432 _2_ RTR  --- 4 DSR 48 [0 ffffffff 5 800] ------- [0:255 18:255 32 0] 2 [1 2] [0 2 0 0->16] [0 0 0 0->0]
r 15.057124432 _12_ RTR  --- 4 DSR 48 [0 ffffffff 5 800] ------- [0:255 18:255 32 0] 2 [1 2] [0 2 0 0->16] [0 0 0 0->0]
s 15.057250897 _18_ RTR  --- 8 DSR 52 [0 0 0 0] ------- [18:255 0:255 254 7] 3 [0 2] [1 2 3 0->18] [0 0 0 0->0]
r 15.058054354 _5_ RTR  --- 4 DSR 48 [0 ffffffff a 800] ------- [0:255 18:255 32 0] 2 [1 2] [0 2 0 0->16] [0 0 0 0->0]
r 15.058054354 _15_ RTR  --- 4 DSR 48 [0 ffffffff a 800] ------- [0:255 18:255 32 0] 2 [1 2] [0 2 0 0->16] [0 0 0 0->0]
r 15.058054354 _11_ RTR  --- 4 DSR 48 [0 ffffffff a 800] ------- [0:255 18:255 32 0] 2 [1 2] [0 2 0 0->16] [0 0 0 0->0]
r 15.058054492 _6_ RTR  --- 4 DSR 48 [0 ffffffff a 800] ------- [0:255 18:255 32 0] 2 [1 2] [0 2 0 0->16] [0 0 0 0->0]
r 15.058054492 _16_ RTR  --- 4 DSR 48 [0 ffffffff a 800] ------- [0:255 18:255 32 0] 2 [1 2] [0 2 0 0->16] [0 0 0 0->0]
r 15.058054687 _0_ RTR  --- 4 DSR 48 [0 ffffffff a 800] ------- [0:255 18:255 32 0] 2 [1 2] [0 2 0 0->16] [0 0 0 0->0]
r 15.058054687 _12_ RTR  --- 4 DSR 48 [0 ffffffff a 800] ------- [0:255 18:255 32 0] 2 [1 2] [0 2 0 0->16] [0 0 0 0->0]
r 15.058054766 _1_ RTR  --- 4 DSR 48 [0 ffffffff a 800] ------- [0:255 18:255 32 0] 2 [1 2] [0 2 0 0->16] [0 0 0 0->0]
r 15.058054766 _7_ RTR  --- 4 DSR 48 [0 ffffffff a 800] ------- [0:255 18:255 32 0] 2 [1 2] [0 2 0 0->16] [0 0 0 0->0]
r 15.058054766 _17_ RTR  --- 4 DSR 48 [0 ffffffff a 800] ------- [0:255 18:255 32 0] 2 [1 2] [0 2 0 0->16] [0 0 0 0->0]
r 15.059005099 _0_ RTR  --- 4 DSR 48 [0 ffffffff 1 800] ------- [0:255 18:255 32 0] 2 [1 2] [0 2 0 0->16] [0 0 0 0->0]
r 15.059005099 _6_ RTR  --- 4 DSR 48 [0 ffffffff 1 800] ------- [0:255 18:255 32 0] 2 [1 2] [0 2 0 0->16] [0 0 0 0->0]
r 15.059005099 _2_ RTR  --- 4 DSR 48 [0 ffffffff 1 800] ------- [0:255 18:255 32 0] 2 [1 2] [0 2 0 0->16] [0 0 0 0->0]
r 15.059005237 _5_ RTR  --- 4 DSR 48 [0 ffffffff 1 800] ------- [0:255 18:255 32 0] 2 [1 2] [0 2 0 0->16] [0 0 0 0->0]
r 15.059005237 _7_ RTR  --- 4 DSR 48 [0 ffffffff 1 800] ------- [0:255 18:255 32 0] 2 [1 2] [0 2 0 0->16] [0 0 0 0->0]
r 15.059005432 _11_ RTR  --- 4 DSR 48 [0 ffffffff 1 800] ------- [0:255 18:255 32 0] 2 [1 2] [0 2 0 0->16] [0 0 0 0->0]
r 15.059005432 _3_ RTR  --- 4 DSR 48 [0 ffffffff 1 800] ------- [0:255 18:255 32 0] 2 [1 2] [0 2 0 0->16] [0 0 0 0->0]
r 15.059005511 _10_ RTR  --- 4 DSR 48 [0 ffffffff 1 800] ------- [0:255 18:255 32 0] 2 [1 2] [0 2 0 0->16] [0 0 0 0->0]
r 15.059005511 _12_ RTR  --- 4 DSR 48 [0 ffffffff 1 800] ------- [0:255 18:255 32 0] 2 [1 2] [0 2 0 0->16] [0 0 0 0->0]
r 15.059005511 _8_ RTR  --- 4 DSR 48 [0 ffffffff 1 800] ------- [0:255 18:255 32 0] 2 [1 2] [0 2 0 0->16] [0 0 0 0->0]
r 15.060055844 _3_ RTR  --- 4 DSR 68 [0 ffffffff 8 800] ------- [0:255 18:255 32 0] 3 [1 2] [0 2 0 0->16] [0 0 0 0->0]
r 15.060055844 _7_ RTR  --- 4 DSR 68 [0 ffffffff 8 800] ------- [0:255 18:255 32 0] 3 [1 2] [0 2 0 0->16] [0 0 0 0->0]
r 15.060055844 _13_ RTR  --- 4 DSR 68 [0 ffffffff 8 800] ------- [0:255 18:255 32 0] 3 [1 2] [0 2 0 0->16] [0 0 0 0->0]
r 15.060055844 _9_ RTR  --- 4 DSR 68 [0 ffffffff 8 800] ------- [0:255 18:255 32 0] 3 [1 2] [0 2 0 0->16] [0 0 0 0->0]
r 15.060055982 _12_ RTR  --- 4 DSR 68 [0 ffffffff 8 800] ------- [0:255 18:255 32 0] 3 [1 2] [0 2 0 0->16] [0 0 0 0->0]
r 15.060055982 _2_ RTR  --- 4 DSR 68 [0 ffffffff 8 800] ------- [0:255 18:255 32 0] 3 [1 2] [0 2 0 0->16] [0 0 0 0->0]
r 15.060055982 _4_ RTR  --- 4 DSR 68 [0 ffffffff 8 800] ------- [0:255 18:255 32 0] 3 [1 2] [0 2 0 0->16] [0 0 0 0->0]
r 15.060055982 _14_ RTR  --- 4 DSR 68 [0 ffffffff 8 800] ------- [0:255 18:255 32 0] 3 [1 2] [0 2 0 0->16] [0 0 0 0->0]
r 15.060056178 _6_ RTR  --- 4 DSR 68 [0 ffffffff 8 800] ------- [0:255 18:255 32 0] 3 [1 2] [0 2 0 0->16] [0 0 0 0->0]
r 15.060056178 _18_ RTR  --- 4 DSR 68 [0 ffffffff 8 800] ------- [0:255 18:255 32 0] 3 [1 2] [0 2 0 0->16] [0 0 0 0->0]
r 15.060056256 _17_ RTR  --- 4 DSR 68 [0 ffffffff 8 800] ------- [0:255 18:255 32 0] 3 [1 2] [0 2 0 0->16] [0 0 0 0->0]
r 15.060056256 _11_ RTR  --- 4 DSR 68 [0 ffffffff 8 800] ------- [0:255 18:255 32 0] 3 [1 2] [0 2 0 0->16] [0 0 0 0->0]
r 15.060056256 _1_ RTR  --- 4 DSR 68 [0 ffffffff 8 800] ------- [0:255 18:255 32 0] 3 [1 2] [0 2 0 0->16] [0 0 0 0->0]
r 15.060056256 _19_ RTR  --- 4 DSR 68 [0 ffffffff 8 800] ------- [0:255 18:255 32 0] 3 [1 2] [0 2 0 0->16] [0 0 0 0->0]
r 15.061358316 _9_ RTR  --- 4 DSR 92 [0 ffffffff e 800] ------- [0:255 18:255 32 0] 4 [1 2] [0 2 0 0->16] [0 0 0 0->0]
r 15.061358316 _13_ RTR  --- 4 DSR 92 [0 ffffffff e 800] ------- [0:255 18:255 32 0] 4 [1 2] [0 2 0 0->16] [0 0 0 0->0]
r 15.061358316 _19_ RTR  --- 4 DSR 92 [0 ffffffff e 800] ------- [0:255 18:255 32 0] 4 [1 2] [0 2 0 0->16] [0 0 0 0->0]
r 15.061358454 _18_ RTR  --- 4 DSR 92 [0 ffffffff e 800] ------- [0:255 18:255 32 0] 4 [1 2] [0 2 0 0->16] [0 0 0 0->0]
r 15.061358454 _8_ RTR  --- 4 DSR 92 [0 ffffffff e 800] ------- [0:255 18:255 32 0] 4 [1 2] [0 2 0 0->16] [0 0 0 0->0]
r 15.061358649 _4_ RTR  --- 4 DSR 92 [0 ffffffff e 800] ------- [0:255 18:255 32 0] 4 [1 2] [0 2 0 0->16] [0 0 0 0->0]
r 15.061358649 _12_ RTR  --- 4 DSR 92 [0 ffffffff e 800] ------- [0:255 18:255 32 0] 4 [1 2] [0 2 0 0->16] [0 0 0 0->0]
r 15.061358728 _3_ RTR  --- 4 DSR 92 [0 ffffffff e 800] ------- [0:255 18:255 32 0] 4 [1 2] [0 2 0 0->16] [0 0 0 0->0]
r 15.061358728 _17_ RTR  --- 4 DSR 92 [0 ffffffff e 800] ------- [0:255 18:255 32 0] 4 [1 2] [0 2 0 0->16] [0 0 0 0->0]
r 15.061358728 _7_ RTR  --- 4 DSR 92 [0 ffffffff e 800] ------- [0:255 18:255 32 0] 4 [1 2] [0 2 0 0->16] [0 0 0 0->0]
s 15.062344418 _18_ RTR  --- 11 DSR 60 [0 0 0 0] ------- [18:255 0:255 254 16] 4 [0 2] [1 2 4 0->18] [0 0 0 0->0]
s 15.062443092 _0_ AGT  --- 14 cbr 512 [0 0 0 0] ------- [0:0 18:0 32 0] [2] 0 0
r 15.062443092 _0_ RTR  --- 14 cbr 512 [0 0 0 0] ------- [0:0 18:0 32 0] [2] 0 0
r 15.062860649 _4_ RTR  --- 4 DSR 92 [0 ffffffff 9 800] ------- [0:255 18:255 32 0] 4 [1 2] [0 2 0 0->16] [0 0 0 0->0]
r 15.062860649 _8_ RTR  --- 4 DSR 92 [0 ffffffff 9 800] ------- [0:255 18:255 32 0] 4 [1 2] [0 2 0 0->16] [0 0 0 0->0]
r 15.062860649 _14_ RTR  --- 4 DSR 92 [0 ffffffff 9 800] ------- [0:255 18:255 32 0] 4 [1 2] [0 2 0 0->16] [0 0 0 0->0]
r 15.062860787 _13_ RTR  --- 4 DSR 92 [0 ffffffff 9 800] ------- [0:255 18:255 32 0] 4 [1 2] [0 2 0 0->16] [0 0 0 0->0]
r 15.062860787 _3_ RTR  --- 4 DSR 92 [0 ffffffff 9 800] ------- [0:255 18:255 32 0] 4 [1 2] [0 2 0 0->16] [0 0 0 0->0]
r 15.062860982 _7_ RTR  --- 4 DSR 92 [0 ffffffff 9 800] ------- [0:255 18:255 32 0] 4 [1 2] [0 2 0 0->16] [0 0 0 0->0]
r 15.062860982 _19_ RTR  --- 4 DSR 92 [0 ffffffff 9 800] ------- [0:255 18:255 32 0] 4 [1 2] [0 2 0 0->16] [0 0 0 0->0]
r 15.062861061 _18_ RTR  --- 4 DSR 92 [0 ffffffff 9 800] ------- [0:255 18:255 32 0] 4 [1 2] [0 2 0 0->16] [0 0 0 0->0]
r 15.062861061 _12_ RTR  --- 4 DSR 92 [0 ffffffff 9 800] ------- [0:255 18:255 32 0] 4 [1 2] [0 2 0 0->16] [0 0 0 0->0]
r 15.062861061 _2_ RTR  --- 4 DSR 92 [0 ffffffff 9 800] ------- [0:255 18:255 32 0] 4 [1 2] [0 2 0 0->16] [0 0 0 0->0]
s 15.063237147 _18_ RTR  --- 12 DSR 60 [0 0 0 0] ------- [18:255 0:255 254 8] 4 [0 2] [1 2 4 0->18] [0 0 0 0->0]
r 15.064504061 _17_ RTR  --- 6 DSR 60 [13a 11 12 800] ------- [18:255 0:255 254 17] 4 [0 2] [1 2 4 0->18] [0 0 0 0->0]
f 15.064504061 _17_ RTR  --- 6 DSR 60 [13a 11 12 800] ------- [18:255 0:255 253 6] 4 [0 2] [1 2 4 0->18] [0 0 0 0->0]
s 15.064585207 _18_ RTR  --- 13 DSR 68 [0 0 0 0] ------- [18:255 0:255 254 14] 5 [0 2] [1 2 5 0->18] [0 0 0 0->0]
r 15.066502297 _6_ RTR  --- 6 DSR 60 [13a 6 11 800] ------- [18:255 0:255 253 6] 4 [0 2] [1 2 4 0->18] [0 0 0 0->0]
f 15.066502297 _6_ RTR  --- 6 DSR 60 [13a 6 11 800] ------- [18:255 0:255 252 0] 4 [0 2] [1 2 4 0->18] [0 0 0 0->0]
s 15.068289079 _18_ RTR  --- 16 DSR 68 [0 0 0 0] ------- [18:255 0:255 254 9] 5 [0 2] [1 2 5 0->18] [0 0 0 0->0]