n -t * -s 0  -x 100 -y 100 -Z 0 -z 30  -v circle -c black
n -t * -s 1  -x 300 -y 100 -Z 0 -z 30  -v circle -c black
n -t * -s 2  -x 500 -y 100 -Z 0 -z 30  -v circle -c black
n -t * -s 3  -x 200 -y 200 -Z 0 -z 30  -v circle -c black
n -t * -s 4  -x 400 -y 200 -Z 0 -z 30  -v circle -c black
n -t * -s 5  -x 100 -y 300 -Z 0 -z 30  -v circle -c black
n -t * -s 6  -x 300 -y 300 -Z 0 -z 30  -v circle -c black
n -t * -s 7  -x 500 -y 300 -Z 0 -z 30  -v circle -c black
V -t * -v 1.0a5 -a 0
W -t * -x 500 -y 500
A -t * -n 1 -p 0 -o 0xffffffff -c 31 -a 1
A -t * -h 1 -m 2147483647 -s 0
+ -t 0.000000000 -s 0 -d -1 -p WCETT -e 284 -c 2 -a 0 -i 0 -k RTR 
- -t 0.000000000 -s 0 -d -1 -p WCETT -e 284 -c 2 -a 0 -i 0 -k RTR
h -t 0.000000000 -s 0 -d -1 -p WCETT -e 284 -c 2 -a 0 -i 0 -k RTR
+ -t 0.000000000 -s 1 -d -1 -p WCETT -e 284 -c 2 -a 0 -i 0 -k RTR 
- -t 0.000000000 -s 1 -d -1 -p WCETT -e 284 -c 2 -a 0 -i 0 -k RTR
h -t 0.000000000 -s 1 -d -1 -p WCETT -e 284 -c 2 -a 0 -i 0 -k RTR
+ -t 0.000000000 -s 2 -d -1 -p WCETT -e 284 -c 2 -a 0 -i 0 -k RTR 
- -t 0.000000000 -s 2 -d -1 -p WCETT -e 284 -c 2 -a 0 -i 0 -k RTR
h -t 0.000000000 -s 2 -d -1 -p WCETT -e 284 -c 2 -a 0 -i 0 -k RTR
+ -t 0.000000000 -s 3 -d -1 -p WCETT -e 284 -c 2 -a 0 -i 0 -k RTR 
- -t 0.000000000 -s 3 -d -1 -p WCETT -e 284 -c 2 -a 0 -i 0 -k RTR
h -t 0.000000000 -s 3 -d -1 -p WCETT -e 284 -c 2 -a 0 -i 0 -k RTR
+ -t 0.000000000 -s 4 -d -1 -p WCETT -e 284 -c 2 -a 0 -i 0 -k RTR 
- -t 0.000000000 -s 4 -d -1 -p WCETT -e 284 -c 2 -a 0 -i 0 -k RTR
h -t 0.000000000 -s 4 -d -1 -p WCETT -e 284 -c 2 -a 0 -i 0 -k RTR
+ -t 0.000000000 -s 5 -d -1 -p WCETT -e 284 -c 2 -a 0 -i 0 -k RTR 
- -t 0.000000000 -s 5 -d -1 -p WCETT -e 284 -c 2 -a 0 -i 0 -k RTR
h -t 0.000000000 -s 5 -d -1 -p WCETT -e 284 -c 2 -a 0 -i 0 -k RTR
+ -t 0.000000000 -s 6 -d -1 -p WCETT -e 284 -c 2 -a 0 -i 0 -k RTR 
- -t 0.000000000 -s 6 -d -1 -p WCETT -e 284 -c 2 -a 0 -i 0 -k RTR
h -t 0.000000000 -s 6 -d -1 -p WCETT -e 284 -c 2 -a 0 -i 0 -k RTR
+ -t 0.000000000 -s 7 -d -1 -p WCETT -e 284 -c 2 -a 0 -i 0 -k RTR 
- -t 0.000000000 -s 7 -d -1 -p WCETT -e 284 -c 2 -a 0 -i 0 -k RTR
h -t 0.000000000 -s 7 -d -1 -p WCETT -e 284 -c 2 -a 0 -i 0 -k RTR
r -t 0.002788471 -s 3 -d -1 -p WCETT -e 284 -c 2 -a 0 -i 0 -k RTR
r -t 0.002788667 -s 0 -d -1 -p WCETT -e 284 -c 2 -a 0 -i 0 -k RTR
r -t 0.002788667 -s 6 -d -1 -p WCETT -e 284 -c 2 -a 0 -i 0 -k RTR
r -t 0.005687138 -s 3 -d -1 -p WCETT -e 284 -c 2 -a 0 -i 0 -k RTR
r -t 0.005687138 -s 4 -d -1 -p WCETT -e 284 -c 2 -a 0 -i 0 -k RTR
r -t 0.005687333 -s 1 -d -1 -p WCETT -e 284 -c 2 -a 0 -i 0 -k RTR
r -t 0.005687333 -s 5 -d -1 -p WCETT -e 284 -c 2 -a 0 -i 0 -k RTR
r -t 0.005687333 -s 7 -d -1 -p WCETT -e 284 -c 2 -a 0 -i 0 -k RTR
r -t 0.008465805 -s 3 -d -1 -p WCETT -e 284 -c 2 -a 0 -i 0 -k RTR
r -t 0.008465805 -s 4 -d -1 -p WCETT -e 284 -c 2 -a 0 -i 0 -k RTR
r -t 0.008466000 -s 0 -d -1 -p WCETT -e 284 -c 2 -a 0 -i 0 -k RTR
r -t 0.008466000 -s 6 -d -1 -p WCETT -e 284 -c 2 -a 0 -i 0 -k RTR
r -t 0.008466000 -s 2 -d -1 -p WCETT -e 284 -c 2 -a 0 -i 0 -k RTR
r -t 0.011304276 -s 5 -d -1 -p WCETT -e 284 -c 2 -a 0 -i 0 -k RTR
r -t 0.011304276 -s 0 -d -1 -p WCETT -e 284 -c 2 -a 0 -i 0 -k RTR
r -t 0.011304276 -s 1 -d -1 -p WCETT -e 284 -c 2 -a 0 -i 0 -k RTR
r -t 0.011304276 -s 6 -d -1 -p WCETT -e 284 -c 2 -a 0 -i 0 -k RTR
r -t 0.011304471 -s 4 -d -1 -p WCETT -e 284 -c 2 -a 0 -i 0 -k RTR
r -t 0.014222943 -s 6 -d -1 -p WCETT -e 284 -c 2 -a 0 -i 0 -k RTR
r -t 0.014222943 -s 1 -d -1 -p WCETT -e 284 -c 2 -a 0 -i 0 -k RTR
r -t 0.014222943 -s 2 -d -1 -p WCETT -e 284 -c 2 -a 0 -i 0 -k RTR
r -t 0.014222943 -s 7 -d -1 -p WCETT -e 284 -c 2 -a 0 -i 0 -k RTR
r -t 0.014223138 -s 3 -d -1 -p WCETT -e 284 -c 2 -a 0 -i 0 -k RTR
r -t 0.017121414 -s 4 -d -1 -p WCETT -e 284 -c 2 -a 0 -i 0 -k RTR
r -t 0.017121609 -s 2 -d -1 -p WCETT -e 284 -c 2 -a 0 -i 0 -k RTR
r -t 0.017121609 -s 6 -d -1 -p WCETT -e 284 -c 2 -a 0 -i 0 -k RTR
r -t 0.020160081 -s 4 -d -1 -p WCETT -e 284 -c 2 -a 0 -i 0 -k RTR
r -t 0.020160276 -s 1 -d -1 -p WCETT -e 284 -c 2 -a 0 -i 0 -k RTR
r -t 0.020160276 -s 7 -d -1 -p WCETT -e 284 -c 2 -a 0 -i 0 -k RTR
r -t 0.023283414 -s 3 -d -1 -p WCETT -e 284 -c 2 -a 0 -i 0 -k RTR
r -t 0.023283609 -s 5 -d -1 -p WCETT -e 284 -c 2 -a 0 -i 0 -k RTR
r -t 0.023283609 -s 1 -d -1 -p WCETT -e 284 -c 2 -a 0 -i 0 -k RTR
+ -t 1.000000000 -s 0 -d -1 -p WCETT -e 284 -c 2 -a 0 -i 0 -k RTR 
- -t 1.000000000 -s 0 -d -1 -p WCETT -e 284 -c 2 -a 0 -i 0 -k RTR
h -t 1.000000000 -s 0 -d -1 -p WCETT -e 284 -c 2 -a 0 -i 0 -k RTR
+ -t 1.000000000 -s 1 -d -1 -p WCETT -e 284 -c 2 -a 0 -i 0 -k RTR 
- -t 1.000000000 -s 1 -d -1 -p WCETT -e 284 -c 2 -a 0 -i 0 -k RTR
h -t 1.000000000 -s 1 -d -1 -p WCETT -e 284 -c 2 -a 0 -i 0 -k RTR
+ -t 1.000000000 -s 2 -d -1 -p WCETT -e 284 -c 2 -a 0 -i 0 -k RTR 
- -t 1.000000000 -s 2 -d -1 -p WCETT -e 284 -c 2 -a 0 -i 0 -k RTR
h -t 1.000000000 -s 2 -d -1 -p WCETT -e 284 -c 2 -a 0 -i 0 -k RTR
+ -t 1.000000000 -s 3 -d -1 -p WCETT -e 284 -c 2 -a 0 -i 0 -k RTR 
- -t 1.000000000 -s 3 -d -1 -p WCETT -e 284 -c 2 -a 0 -i 0 -k RTR
h -t 1.000000000 -s 3 -d -1 -p WCETT -e 284 -c 2 -a 0 -i 0 -k RTR
+ -t 1.000000000 -s 4 -d -1 -p WCETT -e 284 -c 2 -a 0 -i 0 -k RTR 
- -t 1.000000000 -s 4 -d -1 -p WCETT -e 284 -c 2 -a 0 -i 0 -k RTR
h -t 1.000000000 -s 4 -d -1 -p WCETT -e 284 -c 2 -a 0 -i 0 -k RTR
+ -t 1.000000000 -s 5 -d -1 -p WCETT -e 284 -c 2 -a 0 -i 0 -k RTR 
- -t 1.000000000 -s 5 -d -1 -p WCETT -e 284 -c 2 -a 0 -i 0 -k RTR
h -t 1.000000000 -s 5 -d -1 -p WCETT -e 284 -c 2 -a 0 -i 0 -k RTR
+ -t 1.000000000 -s 6 -d -1 -p WCETT -e 284 -c 2 -a 0 -i 0 -k RTR 
- -t 1.000000000 -s 6 -d -1 -p WCETT -e 284 -c 2 -a 0 -i 0 -k RTR
h -t 1.000000000 -s 6 -d -1 -p WCETT -e 284 -c 2 -a 0 -i 0 -k RTR
+ -t 1.000000000 -s 7 -d -1 -p WCETT -e 284 -c 2 -a 0 -i 0 -k RTR 
- -t 1.000000000 -s 7 -d -1 -p WCETT -e 284 -c 2 -a 0 -i 0 -k RTR
h -t 1.000000000 -s 7 -d -1 -p WCETT -e 284 -c 2 -a 0 -i 0 -k RTR
r -t 1.002808471 -s 4 -d -1 -p WCETT -e 284 -c 2 -a 0 -i 0 -k RTR
r -t 1.002808667 -s 2 -d -1 -p WCETT -e 284 -c 2 -a 0 -i 0 -k RTR
r -t 1.002808667 -s 6 -d -1 -p WCETT -e 284 -c 2 -a 0 -i 0 -k RTR
r -t 1.005747138 -s 3 -d -1 -p WCETT -e 284 -c 2 -a 0 -i 0 -k RTR
r -t 1.005747138 -s 4 -d -1 -p WCETT -e 284 -c 2 -a 0 -i 0 -k RTR
r -t 1.005747333 -s 1 -d -1 -p WCETT -e 284 -c 2 -a 0 -i 0 -k RTR
r -t 1.005747333 -s 5 -d -1 -p WCETT -e 284 -c 2 -a 0 -i 0 -k RTR
r -t 1.005747333 -s 7 -d -1 -p WCETT -e 284 -c 2 -a 0 -i 0 -k RTR
r -t 1.008585609 -s 6 -d -1 -p WCETT -e 284 -c 2 -a 0 -i 0 -k RTR
r -t 1.008585609 -s 1 -d -1 -p WCETT -e 284 -c 2 -a 0 -i 0 -k RTR
r -t 1.008585609 -s 2 -d -1 -p WCETT -e 284 -c 2 -a 0 -i 0 -k RTR
r -t 1.008585609 -s 7 -d -1 -p WCETT -e 284 -c 2 -a 0 -i 0 -k RTR
r -t 1.008585805 -s 3 -d -1 -p WCETT -e 284 -c 2 -a 0 -i 0 -k RTR
r -t 1.011364081 -s 3 -d -1 -p WCETT -e 284 -c 2 -a 0 -i 0 -k RTR
r -t 1.011364081 -s 4 -d -1 -p WCETT -e 284 -c 2 -a 0 -i 0 -k RTR
r -t 1.011364276 -s 0 -d -1 -p WCETT -e 284 -c 2 -a 0 -i 0 -k RTR
r -t 1.011364276 -s 6 -d -1 -p WCETT -e 284 -c 2 -a 0 -i 0 -k RTR
r -t 1.011364276 -s 2 -d -1 -p WCETT -e 284 -c 2 -a 0 -i 0 -k RTR
r -t 1.014282552 -s 5 -d -1 -p WCETT -e 284 -c 2 -a 0 -i 0 -k RTR
r -t 1.014282552 -s 0 -d -1 -p WCETT -e 284 -c 2 -a 0 -i 0 -k RTR
r -t 1.014282552 -s 1 -d -1 -p WCETT -e 284 -c 2 -a 0 -i 0 -k RTR
r -t 1.014282552 -s 6 -d -1 -p WCETT -e 284 -c 2 -a 0 -i 0 -k RTR
r -t 1.014282748 -s 4 -d -1 -p WCETT -e 284 -c 2 -a 0 -i 0 -k RTR
r -t 1.017061024 -s 3 -d -1 -p WCETT -e 284 -c 2 -a 0 -i 0 -k RTR
r -t 1.017061219 -s 5 -d -1 -p WCETT -e 284 -c 2 -a 0 -i 0 -k RTR
r -t 1.017061219 -s 1 -d -1 -p WCETT -e 284 -c 2 -a 0 -i 0 -k RTR
r -t 1.019839690 -s 3 -d -1 -p WCETT -e 284 -c 2 -a 0 -i 0 -k RTR
r -t 1.019839886 -s 0 -d -1 -p WCETT -e 284 -c 2 -a 0 -i 0 -k RTR
r -t 1.019839886 -s 6 -d -1 -p WCETT -e 284 -c 2 -a 0 -i 0 -k RTR
r -t 1.022983181 -s 4 -d -1 -p WCETT -e 284 -c 2 -a 0 -i 0 -k RTR
r -t 1.022983376 -s 1 -d -1 -p WCETT -e 284 -c 2 -a 0 -i 0 -k RTR
r -t 1.022983376 -s 7 -d -1 -p WCETT -e 284 -c 2 -a 0 -i 0 -k RTR
+ -t 2.000000000 -s 0 -d -1 -p WCETT -e 284 -c 2 -a 0 -i 0 -k RTR 
- -t 2.000000000 -s 0 -d -1 -p WCETT -e 284 -c 2 -a 0 -i 0 -k RTR
h -t 2.000000000 -s 0 -d -1 -p WCETT -e 284 -c 2 -a 0 -i 0 -k RTR
+ -t 2.000000000 -s 1 -d -1 -p WCETT -e 284 -c 2 -a 0 -i 0 -k RTR 
- -t 2.000000000 -s 1 -d -1 -p WCETT -e 284 -c 2 -a 0 -i 0 -k RTR
h -t 2.000000000 -s 1 -d -1 -p WCETT -e 284 -c 2 -a 0 -i 0 -k RTR
+ -t 2.000000000 -s 2 -d -1 -p WCETT -e 284 -c 2 -a 0 -i 0 -k RTR 
- -t 2.000000000 -s 2 -d -1 -p WCETT -e 284 -c 2 -a 0 -i 0 -k RTR
h -t 2.000000000 -s 2 -d -1 -p WCETT -e 284 -c 2 -a 0 -i 0 -k RTR
+ -t 2.000000000 -s 3 -d -1 -p WCETT -e 284 -c 2 -a 0 -i 0 -k RTR 
- -t 2.000000000 -s 3 -d -1 -p WCETT -e 284 -c 2 -a 0 -i 0 -k RTR
h -t 2.000000000 -s 3 -d -1 -p WCETT -e 284 -c 2 -a 0 -i 0 -k RTR
+ -t 2.000000000 -s 4 -d -1 -p WCETT -e 284 -c 2 -a 0 -i 0 -k RTR 
- -t 2.000000000 -s 4 -d -1 -p WCETT -e 284 -c 2 -a 0 -i 0 -k RTR
h -t 2.000000000 -s 4 -d -1 -p WCETT -e 284 -c 2 -a 0 -i 0 -k RTR
+ -t 2.000000000 -s 5 -d -1 -p WCETT -e 284 -c 2 -a 0 -i 0 -k RTR 
- -t 2.000000000 -s 5 -d -1 -p WCETT -e 284 -c 2 -a 0 -i 0 -k RTR
h -t 2.000000000 -s 5 -d -1 -p WCETT -e 284 -c 2 -a 0 -i 0 -k RTR
+ -t 2.000000000 -s 6 -d -1 -p WCETT -e 284 -c 2 -a 0 -i 0 -k RTR 
- -t 2.000000000 -s 6 -d -1 -p WCETT -e 284 -c 2 -a 0 -i 0 -k RTR
h -t 2.000000000 -s 6 -d -1 -p WCETT -e 284 -c 2 -a 0 -i 0 -k RTR
+ -t 2.000000000 -s 7 -d -1 -p WCETT -e 284 -c 2 -a 0 -i 0 -k RTR 
- -t 2.000000000 -s 7 -d -1 -p WCETT -e 284 -c 2 -a 0 -i 0 -k RTR
h -t 2.000000000 -s 7 -d -1 -p WCETT -e 284 -c 2 -a 0 -i 0 -k RTR
r -t 2.002868471 -s 5 -d -1 -p WCETT -e 284 -c 2 -a 0 -i 0 -k RTR
r -t 2.002868471 -s 0 -d -1 -p WCETT -e 284 -c 2 -a 0 -i 0 -k RTR
r -t 2.002868471 -s 1 -d -1 -p WCETT -e 284 -c 2 -a 0 -i 0 -k RTR
r -t 2.002868471 -s 6 -d -1 -p WCETT -e 284 -c 2 -a 0 -i 0 -k RTR
r -t 2.002868667 -s 4 -d -1 -p WCETT -e 284 -c 2 -a 0 -i 0 -k RTR
r -t 2.005626943 -s 3 -d -1 -p WCETT -e 284 -c 2 -a 0 -i 0 -k RTR
r -t 2.005626943 -s 4 -d -1 -p WCETT -e 284 -c 2 -a 0 -i 0 -k RTR
r -t 2.005627138 -s 1 -d -1 -p WCETT -e 284 -c 2 -a 0 -i 0 -k RTR
r -t 2.005627138 -s 5 -d -1 -p WCETT -e 284 -c 2 -a 0 -i 0 -k RTR
r -t 2.005627138 -s 7 -d -1 -p WCETT -e 284 -c 2 -a 0 -i 0 -k RTR
r -t 2.008465609 -s 3 -d -1 -p WCETT -e 284 -c 2 -a 0 -i 0 -k RTR
r -t 2.008465805 -s 0 -d -1 -p WCETT -e 284 -c 2 -a 0 -i 0 -k RTR
r -t 2.008465805 -s 6 -d -1 -p WCETT -e 284 -c 2 -a 0 -i 0 -k RTR
r -t 2.011404276 -s 3 -d -1 -p WCETT -e 284 -c 2 -a 0 -i 0 -k RTR
r -t 2.011404471 -s 5 -d -1 -p WCETT -e 284 -c 2 -a 0 -i 0 -k RTR
r -t 2.011404471 -s 1 -d -1 -p WCETT -e 284 -c 2 -a 0 -i 0 -k RTR
r -t 2.014302943 -s 3 -d -1 -p WCETT -e 284 -c 2 -a 0 -i 0 -k RTR
r -t 2.014302943 -s 4 -d -1 -p WCETT -e 284 -c 2 -a 0 -i 0 -k RTR
r -t 2.014303138 -s 0 -d -1 -p WCETT -e 284 -c 2 -a 0 -i 0 -k RTR
r -t 2.014303138 -s 6 -d -1 -p WCETT -e 284 -c 2 -a 0 -i 0 -k RTR
r -t 2.014303138 -s 2 -d -1 -p WCETT -e 284 -c 2 -a 0 -i 0 -k RTR
r -t 2.017101609 -s 4 -d -1 -p WCETT -e 284 -c 2 -a 0 -i 0 -k RTR
r -t 2.017101805 -s 1 -d -1 -p WCETT -e 284 -c 2 -a 0 -i 0 -k RTR
r -t 2.017101805 -s 7 -d -1 -p WCETT -e 284 -c 2 -a 0 -i 0 -k RTR
r -t 2.019860081 -s 6 -d -1 -p WCETT -e 284 -c 2 -a 0 -i 0 -k RTR
r -t 2.019860081 -s 1 -d -1 -p WCETT -e 284 -c 2 -a 0 -i 0 -k RTR
r -t 2.019860081 -s 2 -d -1 -p WCETT -e 284 -c 2 -a 0 -i 0 -k RTR
r -t 2.019860081 -s 7 -d -1 -p WCETT -e 284 -c 2 -a 0 -i 0 -k RTR
r -t 2.019860276 -s 3 -d -1 -p WCETT -e 284 -c 2 -a 0 -i 0 -k RTR
r -t 2.022918552 -s 4 -d -1 -p WCETT -e 284 -c 2 -a 0 -i 0 -k RTR
r -t 2.022918748 -s 2 -d -1 -p WCETT -e 284 -c 2 -a 0 -i 0 -k RTR
r -t 2.022918748 -s 6 -d -1 -p WCETT -e 284 -c 2 -a 0 -i 0 -k RTR
+ -t 3.000000000 -s 0 -d -1 -p WCETT -e 284 -c 2 -a 0 -i 0 -k RTR 
- -t 3.000000000 -s 0 -d -1 -p WCETT -e 284 -c 2 -a 0 -i 0 -k RTR
h -t 3.000000000 -s 0 -d -1 -p WCETT -e 284 -c 2 -a 0 -i 0 -k RTR
+ -t 3.000000000 -s 1 -d -1 -p WCETT -e 284 -c 2 -a 0 -i 0 -k RTR 
- -t 3.000000000 -s 1 -d -1 -p WCETT -e 284 -c 2 -a 0 -i 0 -k RTR
h -t 3.000000000 -s 1 -d -1 -p WCETT -e 284 -c 2 -a 0 -i 0 -k RTR
+ -t 3.000000000 -s 2 -d -1 -p WCETT -e 284 -c 2 -a 0 -i 0 -k RTR 
- -t 3.000000000 -s 2 -d -1 -p WCETT -e 284 -c 2 -a 0 -i 0 -k RTR
h -t 3.000000000 -s 2 -d -1 -p WCETT -e 284 -c 2 -a 0 -i 0 -k RTR
+ -t 3.000000000 -s 3 -d -1 -p WCETT -e 284 -c 2 -a 0 -i 0 -k RTR 
- -t 3.000000000 -s 3 -d -1 -p WCETT -e 284 -c 2 -a 0 -i 0 -k RTR
h -t 3.000000000 -s 3 -d -1 -p WCETT -e 284 -c 2 -a 0 -i 0 -k RTR
+ -t 3.000000000 -s 4 -d -1 -p WCETT -e 284 -c 2 -a 0 -i 0 -k RTR 
- -t 3.000000000 -s 4 -d -1 -p WCETT -e 284 -c 2 -a 0 -i 0 -k RTR
h -t 3.000000000 -s 4 -d -1 -p WCETT -e 284 -c 2 -a 0 -i 0 -k RTR
+ -t 3.000000000 -s 5 -d -1 -p WCETT -e 284 -c 2 -a 0 -i 0 -k RTR 
- -t 3.000000000 -s 5 -d -1 -p WCETT -e 284 -c 2 -a 0 -i 0 -k RTR
h -t 3.000000000 -s 5 -d -1 -p WCETT -e 284 -c 2 -a 0 -i 0 -k RTR
+ -t 3.000000000 -s 6 -d -1 -p WCETT -e 284 -c 2 -a 0 -i 0 -k RTR 
- -t 3.000000000 -s 6 -d -1 -p WCETT -e 284 -c 2 -a 0 -i 0 -k RTR
h -t 3.000000000 -s 6 -d -1 -p WCETT -e 284 -c 2 -a 0 -i 0 -k RTR
+ -t 3.000000000 -s 7 -d -1 -p WCETT -e 284 -c 2 -a 0 -i 0 -k RTR 
- -t 3.000000000 -s 7 -d -1 -p WCETT -e 284 -c 2 -a 0 -i 0 -k RTR
h -t 3.000000000 -s 7 -d -1 -p WCETT -e 284 -c 2 -a 0 -i 0 -k RTR
r -t 3.002788471 -s 5 -d -1 -p WCETT -e 284 -c 2 -a 0 -i 0 -k RTR
r -t 3.002788471 -s 0 -d -1 -p WCETT -e 284 -c 2 -a 0 -i 0 -k RTR
r -t 3.002788471 -s 1 -d -1 -p WCETT -e 284 -c 2 -a 0 -i 0 -k RTR
r -t 3.002788471 -s 6 -d -1 -p WCETT -e 284 -c 2 -a 0 -i 0 -k RTR
r -t 3.002788667 -s 4 -d -1 -p WCETT -e 284 -c 2 -a 0 -i 0 -k RTR
r -t 3.005686943 -s 3 -d -1 -p WCETT -e 284 -c 2 -a 0 -i 0 -k RTR
r -t 3.005686943 -s 4 -d -1 -p WCETT -e 284 -c 2 -a 0 -i 0 -k RTR
r -t 3.005687138 -s 1 -d -1 -p WCETT -e 284 -c 2 -a 0 -i 0 -k RTR
r -t 3.005687138 -s 5 -d -1 -p WCETT -e 284 -c 2 -a 0 -i 0 -k RTR
r -t 3.005687138 -s 7 -d -1 -p WCETT -e 284 -c 2 -a 0 -i 0 -k RTR
r -t 3.008485414 -s 6 -d -1 -p WCETT -e 284 -c 2 -a 0 -i 0 -k RTR
r -t 3.008485414 -s 1 -d -1 -p WCETT -e 284 -c 2 -a 0 -i 0 -k RTR
r -t 3.008485414 -s 2 -d -1 -p WCETT -e 284 -c 2 -a 0 -i 0 -k RTR
r -t 3.008485414 -s 7 -d -1 -p WCETT -e 284 -c 2 -a 0 -i 0 -k RTR
r -t 3.008485609 -s 3 -d -1 -p WCETT -e 284 -c 2 -a 0 -i 0 -k RTR
r -t 3.011283886 -s 3 -d -1 -p WCETT -e 284 -c 2 -a 0 -i 0 -k RTR
r -t 3.011283886 -s 4 -d -1 -p WCETT -e 284 -c 2 -a 0 -i 0 -k RTR
r -t 3.011284081 -s 0 -d -1 -p WCETT -e 284 -c 2 -a 0 -i 0 -k RTR
r -t 3.011284081 -s 6 -d -1 -p WCETT -e 284 -c 2 -a 0 -i 0 -k RTR
r -t 3.011284081 -s 2 -d -1 -p WCETT -e 284 -c 2 -a 0 -i 0 -k RTR
r -t 3.014042552 -s 3 -d -1 -p WCETT -e 284 -c 2 -a 0 -i 0 -k RTR
r -t 3.014042748 -s 5 -d -1 -p WCETT -e 284 -c 2 -a 0 -i 0 -k RTR
r -t 3.014042748 -s 1 -d -1 -p WCETT -e 284 -c 2 -a 0 -i 0 -k RTR
r -t 3.016881219 -s 3 -d -1 -p WCETT -e 284 -c 2 -a 0 -i 0 -k RTR
r -t 3.016881414 -s 0 -d -1 -p WCETT -e 284 -c 2 -a 0 -i 0 -k RTR
r -t 3.016881414 -s 6 -d -1 -p WCETT -e 284 -c 2 -a 0 -i 0 -k RTR
r -t 3.020084552 -s 4 -d -1 -p WCETT -e 284 -c 2 -a 0 -i 0 -k RTR
r -t 3.020084748 -s 2 -d -1 -p WCETT -e 284 -c 2 -a 0 -i 0 -k RTR
r -t 3.020084748 -s 6 -d -1 -p WCETT -e 284 -c 2 -a 0 -i 0 -k RTR
r -t 3.023123219 -s 4 -d -1 -p WCETT -e 284 -c 2 -a 0 -i 0 -k RTR
r -t 3.023123414 -s 1 -d -1 -p WCETT -e 284 -c 2 -a 0 -i 0 -k RTR
r -t 3.023123414 -s 7 -d -1 -p WCETT -e 284 -c 2 -a 0 -i 0 -k RTR
+ -t 4.000000000 -s 0 -d -1 -p WCETT -e 284 -c 2 -a 0 -i 0 -k RTR 
- -t 4.000000000 -s 0 -d -1 -p WCETT -e 284 -c 2 -a 0 -i 0 -k RTR
h -t 4.000000000 -s 0 -d -1 -p WCETT -e 284 -c 2 -a 0 -i 0 -k RTR
+ -t 4.000000000 -s 1 -d -1 -p WCETT -e 284 -c 2 -a 0 -i 0 -k RTR 
- -t 4.000000000 -s 1 -d -1 -p WCETT -e 284 -c 2 -a 0 -i 0 -k RTR
h -t 4.000000000 -s 1 -d -1 -p WCETT -e 284 -c 2 -a 0 -i 0 -k RTR
+ -t 4.000000000 -s 2 -d -1 -p WCETT -e 284 -c 2 -a 0 -i 0 -k RTR 
- -t 4.000000000 -s 2 -d -1 -p WCETT -e 284 -c 2 -a 0 -i 0 -k RTR
h -t 4.000000000 -s 2 -d -1 -p WCETT -e 284 -c 2 -a 0 -i 0 -k RTR
+ -t 4.000000000 -s 3 -d -1 -p WCETT -e 284 -c 2 -a 0 -i 0 -k RTR 
- -t 4.000000000 -s 3 -d -1 -p WCETT -e 284 -c 2 -a 0 -i 0 -k RTR
h -t 4.000000000 -s 3 -d -1 -p WCETT -e 284 -c 2 -a 0 -i 0 -k RTR
+ -t 4.000000000 -s 4 -d -1 -p WCETT -e 284 -c 2 -a 0 -i 0 -k RTR 
- -t 4.000000000 -s 4 -d -1 -p WCETT -e 284 -c 2 -a 0 -i 0 -k RTR
h -t 4.000000000 -s 4 -d -1 -p WCETT -e 284 -c 2 -a 0 -i 0 -k RTR
+ -t 4.000000000 -s 5 -d -1 -p WCETT -e 284 -c 2 -a 0 -i 0 -k RTR 
- -t 4.000000000 -s 5 -d -1 -p WCETT -e 284 -c 2 -a 0 -i 0 -k RTR
h -t 4.000000000 -s 5 -d -1 -p WCETT -e 284 -c 2 -a 0 -i 0 -k RTR
+ -t 4.000000000 -s 6 -d -1 -p WCETT -e 284 -c 2 -a 0 -i 0 -k RTR 
- -t 4.000000000 -s 6 -d -1 -p WCETT -e 284 -c 2 -a 0 -i 0 -k RTR
h -t 4.000000000 -s 6 -d -1 -p WCETT -e 284 -c 2 -a 0 -i 0 -k RTR
+ -t 4.000000000 -s 7 -d -1 -p WCETT -e 284 -c 2 -a 0 -i 0 -k RTR 
- -t 4.000000000 -s 7 -d -1 -p WCETT -e 284 -c 2 -a 0 -i 0 -k RTR
h -t 4.000000000 -s 7 -d -1 -p WCETT -e 284 -c 2 -a 0 -i 0 -k RTR
r -t 4.002828471 -s 5 -d -1 -p WCETT -e 284 -c 2 -a 0 -i 0 -k RTR
r -t 4.002828471 -s 0 -d -1 -p WCETT -e 284 -c 2 -a 0 -i 0 -k RTR
r -t 4.002828471 -s 1 -d -1 -p WCETT -e 284 -c 2 -a 0 -i 0 -k RTR
r -t 4.002828471 -s 6 -d -1 -p WCETT -e 284 -c 2 -a 0 -i 0 -k RTR
r -t 4.002828667 -s 4 -d -1 -p WCETT -e 284 -c 2 -a 0 -i 0 -k RTR
r -t 4.005646943 -s 4 -d -1 -p WCETT -e 284 -c 2 -a 0 -i 0 -k RTR
r -t 4.005647138 -s 2 -d -1 -p WCETT -e 284 -c 2 -a 0 -i 0 -k RTR
r -t 4.008810276 -s 4 -d -1 -p WCETT -e 284 -c 2 -a 0 -i 0 -k RTR
r -t 4.008810471 -s 2 -d -1 -p WCETT -e 284 -c 2 -a 0 -i 0 -k RTR
r -t 4.008810471 -s 6 -d -1 -p WCETT -e 284 -c 2 -a 0 -i 0 -k RTR
r -t 4.011568943 -s 3 -d -1 -p WCETT -e 284 -c 2 -a 0 -i 0 -k RTR
r -t 4.011568943 -s 4 -d -1 -p WCETT -e 284 -c 2 -a 0 -i 0 -k RTR
r -t 4.011569138 -s 1 -d -1 -p WCETT -e 284 -c 2 -a 0 -i 0 -k RTR
r -t 4.011569138 -s 5 -d -1 -p WCETT -e 284 -c 2 -a 0 -i 0 -k RTR
r -t 4.011569138 -s 7 -d -1 -p WCETT -e 284 -c 2 -a 0 -i 0 -k RTR
r -t 4.014567414 -s 6 -d -1 -p WCETT -e 284 -c 2 -a 0 -i 0 -k RTR
r -t 4.014567414 -s 1 -d -1 -p WCETT -e 284 -c 2 -a 0 -i 0 -k RTR
r -t 4.014567414 -s 2 -d -1 -p WCETT -e 284 -c 2 -a 0 -i 0 -k RTR
r -t 4.014567414 -s 7 -d -1 -p WCETT -e 284 -c 2 -a 0 -i 0 -k RTR
r -t 4.014567609 -s 3 -d -1 -p WCETT -e 284 -c 2 -a 0 -i 0 -k RTR
r -t 4.017485886 -s 4 -d -1 -p WCETT -e 284 -c 2 -a 0 -i 0 -k RTR
r -t 4.017486081 -s 1 -d -1 -p WCETT -e 284 -c 2 -a 0 -i 0 -k RTR
r -t 4.017486081 -s 7 -d -1 -p WCETT -e 284 -c 2 -a 0 -i 0 -k RTR
r -t 4.020649219 -s 3 -d -1 -p WCETT -e 284 -c 2 -a 0 -i 0 -k RTR
r -t 4.020649414 -s 5 -d -1 -p WCETT -e 284 -c 2 -a 0 -i 0 -k RTR
r -t 4.020649414 -s 1 -d -1 -p WCETT -e 284 -c 2 -a 0 -i 0 -k RTR
+ -t 5.000000000 -s 0 -d -1 -p WCETT -e 284 -c 2 -a 0 -i 0 -k RTR 
- -t 5.000000000 -s 0 -d -1 -p WCETT -e 284 -c 2 -a 0 -i 0 -k RTR
h -t 5.000000000 -s 0 -d -1 -p WCETT -e 284 -c 2 -a 0 -i 0 -k RTR
+ -t 5.000000000 -s 1 -d -1 -p WCETT -e 284 -c 2 -a 0 -i 0 -k RTR 
- -t 5.000000000 -s 1 -d -1 -p WCETT -e 284 -c 2 -a 0 -i 0 -k RTR
h -t 5.000000000 -s 1 -d -1 -p WCETT -e 284 -c 2 -a 0 -i 0 -k RTR
+ -t 5.000000000 -s 2 -d -1 -p WCETT -e 284 -c 2 -a 0 -i 0 -k RTR 
- -t 5.000000000 -s 2 -d -1 -p WCETT -e 284 -c 2 -a 0 -i 0 -k RTR
h -t 5.000000000 -s 2 -d -1 -p WCETT -e 284 -c 2 -a 0 -i 0 -k RTR
+ -t 5.000000000 -s 3 -d -1 -p WCETT -e 284 -c 2 -a 0 -i 0 -k RTR 
- -t 5.000000000 -s 3 -d -1 -p WCETT -e 284 -c 2 -a 0 -i 0 -k RTR
h -t 5.000000000 -s 3 -d -1 -p WCETT -e 284 -c 2 -a 0 -i 0 -k RTR
+ -t 5.000000000 -s 4 -d -1 -p WCETT -e 284 -c 2 -a 0 -i 0 -k RTR 
- -t 5.000000000 -s 4 -d -1 -p WCETT -e 284 -c 2 -a 0 -i 0 -k RTR
h -t 5.000000000 -s 4 -d -1 -p WCETT -e 284 -c 2 -a 0 -i 0 -k RTR
+ -t 5.000000000 -s 5 -d -1 -p WCETT -e 284 -c 2 -a 0 -i 0 -k RTR 
- -t 5.000000000 -s 5 -d -1 -p WCETT -e 284 -c 2 -a 0 -i 0 -k RTR
h -t 5.000000000 -s 5 -d -1 -p WCETT -e 284 -c 2 -a 0 -i 0 -k RTR
+ -t 5.000000000 -s 6 -d -1 -p WCETT -e 284 -c 2 -a 0 -i 0 -k RTR 
- -t 5.000000000 -s 6 -d -1 -p WCETT -e 284 -c 2 -a 0 -i 0 -k RTR
h -t 5.000000000 -s 6 -d -1 -p WCETT -e 284 -c 2 -a 0 -i 0 -k RTR
+ -t 5.000000000 -s 7 -d -1 -p WCETT -e 284 -c 2 -a 0 -i 0 -k RTR 
- -t 5.000000000 -s 7 -d -1 -p WCETT -e 284 -c 2 -a 0 -i 0 -k RTR
h -t 5.000000000 -s 7 -d -1 -p WCETT -e 284 -c 2 -a 0 -i 0 -k RTR
r -t 5.002908471 -s 3 -d -1 -p WCETT -e 284 -c 2 -a 0 -i 0 -k RTR
r -t 5.002908471 -s 4 -d -1 -p WCETT -e 284 -c 2 -a 0 -i 0 -k RTR
r -t 5.002908667 -s 0 -d -1 -p WCETT -e 284 -c 2 -a 0 -i 0 -k RTR
r -t 5.002908667 -s 6 -d -1 -p WCETT -e 284 -c 2 -a 0 -i 0 -k RTR
r -t 5.002908667 -s 2 -d -1 -p WCETT -e 284 -c 2 -a 0 -i 0 -k RTR
r -t 5.005827138 -s 3 -d -1 -p WCETT -e 284 -c 2 -a 0 -i 0 -k RTR
r -t 5.005827138 -s 4 -d -1 -p WCETT -e 284 -c 2 -a 0 -i 0 -k RTR
r -t 5.005827333 -s 1 -d -1 -p WCETT -e 284 -c 2 -a 0 -i 0 -k RTR
r -t 5.005827333 -s 5 -d -1 -p WCETT -e 284 -c 2 -a 0 -i 0 -k RTR
r -t 5.005827333 -s 7 -d -1 -p WCETT -e 284 -c 2 -a 0 -i 0 -k RTR
r -t 5.008705609 -s 5 -d -1 -p WCETT -e 284 -c 2 -a 0 -i 0 -k RTR
r -t 5.008705609 -s 0 -d -1 -p WCETT -e 284 -c 2 -a 0 -i 0 -k RTR
r -t 5.008705609 -s 1 -d -1 -p WCETT -e 284 -c 2 -a 0 -i 0 -k RTR
r -t 5.008705609 -s 6 -d -1 -p WCETT -e 284 -c 2 -a 0 -i 0 -k RTR
r -t 5.008705805 -s 4 -d -1 -p WCETT -e 284 -c 2 -a 0 -i 0 -k RTR
r -t 5.011484081 -s 3 -d -1 -p WCETT -e 284 -c 2 -a 0 -i 0 -k RTR
r -t 5.011484276 -s 0 -d -1 -p WCETT -e 284 -c 2 -a 0 -i 0 -k RTR
r -t 5.011484276 -s 6 -d -1 -p WCETT -e 284 -c 2 -a 0 -i 0 -k RTR
r -t 5.014462748 -s 3 -d -1 -p WCETT -e 284 -c 2 -a 0 -i 0 -k RTR
r -t 5.014462943 -s 5 -d -1 -p WCETT -e 284 -c 2 -a 0 -i 0 -k RTR
r -t 5.014462943 -s 1 -d -1 -p WCETT -e 284 -c 2 -a 0 -i 0 -k RTR
r -t 5.017606238 -s 4 -d -1 -p WCETT -e 284 -c 2 -a 0 -i 0 -k RTR
r -t 5.017606434 -s 2 -d -1 -p WCETT -e 284 -c 2 -a 0 -i 0 -k RTR
r -t 5.017606434 -s 6 -d -1 -p WCETT -e 284 -c 2 -a 0 -i 0 -k RTR
r -t 5.020364710 -s 6 -d -1 -p WCETT -e 284 -c 2 -a 0 -i 0 -k RTR
r -t 5.020364710 -s 1 -d -1 -p WCETT -e 284 -c 2 -a 0 -i 0 -k RTR
r -t 5.020364710 -s 2 -d -1 -p WCETT -e 284 -c 2 -a 0 -i 0 -k RTR
r -t 5.020364710 -s 7 -d -1 -p WCETT -e 284 -c 2 -a 0 -i 0 -k RTR
r -t 5.020364905 -s 3 -d -1 -p WCETT -e 284 -c 2 -a 0 -i 0 -k RTR
r -t 5.023343181 -s 4 -d -1 -p WCETT -e 284 -c 2 -a 0 -i 0 -k RTR
r -t 5.023343376 -s 1 -d -1 -p WCETT -e 284 -c 2 -a 0 -i 0 -k RTR
r -t 5.023343376 -s 7 -d -1 -p WCETT -e 284 -c 2 -a 0 -i 0 -k RTR
+ -t 6.000000000 -s 0 -d -1 -p WCETT -e 284 -c 2 -a 0 -i 0 -k RTR 
- -t 6.000000000 -s 0 -d -1 -p WCETT -e 284 -c 2 -a 0 -i 0 -k RTR
h -t 6.000000000 -s 0 -d -1 -p WCETT -e 284 -c 2 -a 0 -i 0 -k RTR
+ -t 6.000000000 -s 1 -d -1 -p WCETT -e 284 -c 2 -a 0 -i 0 -k RTR 
- -t 6.000000000 -s 1 -d -1 -p WCETT -e 284 -c 2 -a 0 -i 0 -k RTR
h -t 6.000000000 -s 1 -d -1 -p WCETT -e 284 -c 2 -a 0 -i 0 -k RTR
+ -t 6.000000000 -s 2 -d -1 -p WCETT -e 284 -c 2 -a 0 -i 0 -k RTR 
- -t 6.000000000 -s 2 -d -1 -p WCETT -e 284 -c 2 -a 0 -i 0 -k RTR
h -t 6.000000000 -s 2 -d -1 -p WCETT -e 284 -c 2 -a 0 -i 0 -k RTR
+ -t 6.000000000 -s 3 -d -1 -p WCETT -e 284 -c 2 -a 0 -i 0 -k RTR 
- -t 6.000000000 -s 3 -d -1 -p WCETT -e 284 -c 2 -a 0 -i 0 -k RTR
h -t 6.000000000 -s 3 -d -1 -p WCETT -e 284 -c 2 -a 0 -i 0 -k RTR
+ -t 6.000000000 -s 4 -d -1 -p WCETT -e 284 -c 2 -a 0 -i 0 -k RTR 
- -t 6.000000000 -s 4 -d -1 -p WCETT -e 284 -c 2 -a 0 -i 0 -k RTR
h -t 6.000000000 -s 4 -d -1 -p WCETT -e 284 -c 2 -a 0 -i 0 -k RTR
+ -t 6.000000000 -s 5 -d -1 -p WCETT -e 284 -c 2 -a 0 -i 0 -k RTR 
- -t 6.000000000 -s 5 -d -1 -p WCETT -e 284 -c 2 -a 0 -i 0 -k RTR
h -t 6.000000000 -s 5 -d -1 -p WCETT -e 284 -c 2 -a 0 -i 0 -k RTR
+ -t 6.000000000 -s 6 -d -1 -p WCETT -e 284 -c 2 -a 0 -i 0 -k RTR 
- -t 6.000000000 -s 6 -d -1 -p WCETT -e 284 -c 2 -a 0 -i 0 -k RTR
h -t 6.000000000 -s 6 -d -1 -p WCETT -e 284 -c 2 -a 0 -i 0 -k RTR
+ -t 6.000000000 -s 7 -d -1 -p WCETT -e 284 -c 2 -a 0 -i 0 -k RTR 
- -t 6.000000000 -s 7 -d -1 -p WCETT -e 284 -c 2 -a 0 -i 0 -k RTR
h -t 6.000000000 -s 7 -d -1 -p WCETT -e 284 -c 2 -a 0 -i 0 -k RTR
r -t 6.002788471 -s 5 -d -1 -p WCETT -e 284 -c 2 -a 0 -i 0 -k RTR
r -t 6.002788471 -s 0 -d -1 -p WCETT -e 284 -c 2 -a 0 -i 0 -k RTR
r -t 6.002788471 -s 1 -d -1 -p WCETT -e 284 -c 2 -a 0 -i 0 -k RTR
r -t 6.002788471 -s 6 -d -1 -p WCETT -e 284 -c 2 -a 0 -i 0 -k RTR
r -t 6.002788667 -s 4 -d -1 -p WCETT -e 284 -c 2 -a 0 -i 0 -k RTR
r -t 6.005646943 -s 3 -d -1 -p WCETT -e 284 -c 2 -a 0 -i 0 -k RTR
r -t 6.005647138 -s 5 -d -1 -p WCETT -e 284 -c 2 -a 0 -i 0 -k RTR
r -t 6.005647138 -s 1 -d -1 -p WCETT -e 284 -c 2 -a 0 -i 0 -k RTR
r -t 6.008425609 -s 3 -d -1 -p WCETT -e 284 -c 2 -a 0 -i 0 -k RTR
r -t 6.008425609 -s 4 -d -1 -p WCETT -e 284 -c 2 -a 0 -i 0 -k RTR
r -t 6.008425805 -s 0 -d -1 -p WCETT -e 284 -c 2 -a 0 -i 0 -k RTR
r -t 6.008425805 -s 6 -d -1 -p WCETT -e 284 -c 2 -a 0 -i 0 -k RTR
r -t 6.008425805 -s 2 -d -1 -p WCETT -e 284 -c 2 -a 0 -i 0 -k RTR
r -t 6.011184081 -s 6 -d -1 -p WCETT -e 284 -c 2 -a 0 -i 0 -k RTR
r -t 6.011184081 -s 1 -d -1 -p WCETT -e 284 -c 2 -a 0 -i 0 -k RTR
r -t 6.011184081 -s 2 -d -1 -p WCETT -e 284 -c 2 -a 0 -i 0 -k RTR
r -t 6.011184081 -s 7 -d -1 -p WCETT -e 284 -c 2 -a 0 -i 0 -k RTR
r -t 6.011184276 -s 3 -d -1 -p WCETT -e 284 -c 2 -a 0 -i 0 -k RTR
r -t 6.014102552 -s 3 -d -1 -p WCETT -e 284 -c 2 -a 0 -i 0 -k RTR
r -t 6.014102552 -s 4 -d -1 -p WCETT -e 284 -c 2 -a 0 -i 0 -k RTR
r -t 6.014102748 -s 1 -d -1 -p WCETT -e 284 -c 2 -a 0 -i 0 -k RTR
r -t 6.014102748 -s 5 -d -1 -p WCETT -e 284 -c 2 -a 0 -i 0 -k RTR
r -t 6.014102748 -s 7 -d -1 -p WCETT -e 284 -c 2 -a 0 -i 0 -k RTR
r -t 6.017041219 -s 3 -d -1 -p WCETT -e 284 -c 2 -a 0 -i 0 -k RTR
r -t 6.017041414 -s 0 -d -1 -p WCETT -e 284 -c 2 -a 0 -i 0 -k RTR
r -t 6.017041414 -s 6 -d -1 -p WCETT -e 284 -c 2 -a 0 -i 0 -k RTR
r -t 6.020164710 -s 4 -d -1 -p WCETT -e 284 -c 2 -a 0 -i 0 -k RTR
r -t 6.020164905 -s 1 -d -1 -p WCETT -e 284 -c 2 -a 0 -i 0 -k RTR
r -t 6.020164905 -s 7 -d -1 -p WCETT -e 284 -c 2 -a 0 -i 0 -k RTR
r -t 6.022923376 -s 4 -d -1 -p WCETT -e 284 -c 2 -a 0 -i 0 -k RTR
r -t 6.022923572 -s 2 -d -1 -p WCETT -e 284 -c 2 -a 0 -i 0 -k RTR
r -t 6.022923572 -s 6 -d -1 -p WCETT -e 284 -c 2 -a 0 -i 0 -k RTR
+ -t 7.000000000 -s 0 -d -1 -p WCETT -e 284 -c 2 -a 0 -i 0 -k RTR 
- -t 7.000000000 -s 0 -d -1 -p WCETT -e 284 -c 2 -a 0 -i 0 -k RTR
h -t 7.000000000 -s 0 -d -1 -p WCETT -e 284 -c 2 -a 0 -i 0 -k RTR
+ -t 7.000000000 -s 1 -d -1 -p WCETT -e 284 -c 2 -a 0 -i 0 -k RTR 
- -t 7.000000000 -s 1 -d -1 -p WCETT -e 284 -c 2 -a 0 -i 0 -k RTR
h -t 7.000000000 -s 1 -d -1 -p WCETT -e 284 -c 2 -a 0 -i 0 -k RTR
+ -t 7.000000000 -s 2 -d -1 -p WCETT -e 284 -c 2 -a 0 -i 0 -k RTR 
- -t 7.000000000 -s 2 -d -1 -p WCETT -e 284 -c 2 -a 0 -i 0 -k RTR
h -t 7.000000000 -s 2 -d -1 -p WCETT -e 284 -c 2 -a 0 -i 0 -k RTR
+ -t 7.000000000 -s 3 -d -1 -p WCETT -e 284 -c 2 -a 0 -i 0 -k RTR 
- -t 7.000000000 -s 3 -d -1 -p WCETT -e 284 -c 2 -a 0 -i 0 -k RTR
h -t 7.000000000 -s 3 -d -1 -p WCETT -e 284 -c 2 -a 0 -i 0 -k RTR
+ -t 7.000000000 -s 4 -d -1 -p WCETT -e 284 -c 2 -a 0 -i 0 -k RTR 
- -t 7.000000000 -s 4 -d -1 -p WCETT -e 284 -c 2 -a 0 -i 0 -k RTR
h -t 7.000000000 -s 4 -d -1 -p WCETT -e 284 -c 2 -a 0 -i 0 -k RTR
+ -t 7.000000000 -s 5 -d -1 -p WCETT -e 284 -c 2 -a 0 -i 0 -k RTR 
- -t 7.000000000 -s 5 -d -1 -p WCETT -e 284 -c 2 -a 0 -i 0 -k RTR
h -t 7.000000000 -s 5 -d -1 -p WCETT -e 284 -c 2 -a 0 -i 0 -k RTR
+ -t 7.000000000 -s 6 -d -1 -p WCETT -e 284 -c 2 -a 0 -i 0 -k RTR 
- -t 7.000000000 -s 6 -d -1 -p WCETT -e 284 -c 2 -a 0 -i 0 -k RTR
h -t 7.000000000 -s 6 -d -1 -p WCETT -e 284 -c 2 -a 0 -i 0 -k RTR
+ -t 7.000000000 -s 7 -d -1 -p WCETT -e 284 -c 2 -a 0 -i 0 -k RTR 
- -t 7.000000000 -s 7 -d -1 -p WCETT -e 284 -c 2 -a 0 -i 0 -k RTR
h -t 7.000000000 -s 7 -d -1 -p WCETT -e 284 -c 2 -a 0 -i 0 -k RTR
r -t 7.002808471 -s 5 -d -1 -p WCETT -e 284 -c 2 -a 0 -i 0 -k RTR
r -t 7.002808471 -s 0 -d -1 -p WCETT -e 284 -c 2 -a 0 -i 0 -k RTR
r -t 7.002808471 -s 7 -d -1 -p WCETT -e 284 -c 2 -a 0 -i 0 -k RTR
r -t 7.005951805 -s 3 -d -1 -p WCETT -e 284 -c 2 -a 0 -i 0 -k RTR
r -t 7.005952000 -s 0 -d -1 -p WCETT -e 284 -c 2 -a 0 -i 0 -k RTR
r -t 7.005952000 -s 6 -d -1 -p WCETT -e 284 -c 2 -a 0 -i 0 -k RTR
r -t 7.008890471 -s 3 -d -1 -p WCETT -e 284 -c 2 -a 0 -i 0 -k RTR
r -t 7.008890471 -s 4 -d -1 -p WCETT -e 284 -c 2 -a 0 -i 0 -k RTR
r -t 7.008890667 -s 1 -d -1 -p WCETT -e 284 -c 2 -a 0 -i 0 -k RTR
r -t 7.008890667 -s 5 -d -1 -p WCETT -e 284 -c 2 -a 0 -i 0 -k RTR
r -t 7.008890667 -s 7 -d -1 -p WCETT -e 284 -c 2 -a 0 -i 0 -k RTR
r -t 7.012169138 -s 3 -d -1 -p WCETT -e 284 -c 2 -a 0 -i 0 -k RTR
r -t 7.012169138 -s 4 -d -1 -p WCETT -e 284 -c 2 -a 0 -i 0 -k RTR
r -t 7.012169333 -s 0 -d -1 -p WCETT -e 284 -c 2 -a 0 -i 0 -k RTR
r -t 7.012169333 -s 6 -d -1 -p WCETT -e 284 -c 2 -a 0 -i 0 -k RTR
r -t 7.012169333 -s 2 -d -1 -p WCETT -e 284 -c 2 -a 0 -i 0 -k RTR
r -t 7.015007805 -s 3 -d -1 -p WCETT -e 284 -c 2 -a 0 -i 0 -k RTR
r -t 7.015008000 -s 5 -d -1 -p WCETT -e 284 -c 2 -a 0 -i 0 -k RTR
r -t 7.015008000 -s 1 -d -1 -p WCETT -e 284 -c 2 -a 0 -i 0 -k RTR
r -t 7.018211138 -s 4 -d -1 -p WCETT -e 284 -c 2 -a 0 -i 0 -k RTR
r -t 7.018211333 -s 1 -d -1 -p WCETT -e 284 -c 2 -a 0 -i 0 -k RTR
r -t 7.018211333 -s 7 -d -1 -p WCETT -e 284 -c 2 -a 0 -i 0 -k RTR
+ -t 8.000000000 -s 0 -d -1 -p WCETT -e 284 -c 2 -a 0 -i 0 -k RTR 
- -t 8.000000000 -s 0 -d -1 -p WCETT -e 284 -c 2 -a 0 -i 0 -k RTR
h -t 8.000000000 -s 0 -d -1 -p WCETT -e 284 -c 2 -a 0 -i 0 -k RTR
+ -t 8.000000000 -s 1 -d -1 -p WCETT -e 284 -c 2 -a 0 -i 0 -k RTR 
- -t 8.000000000 -s 1 -d -1 -p WCETT -e 284 -c 2 -a 0 -i 0 -k RTR
h -t 8.000000000 -s 1 -d -1 -p WCETT -e 284 -c 2 -a 0 -i 0 -k RTR
+ -t 8.000000000 -s 2 -d -1 -p WCETT -e 284 -c 2 -a 0 -i 0 -k RTR 
- -t 8.000000000 -s 2 -d -1 -p WCETT -e 284 -c 2 -a 0 -i 0 -k RTR
h -t 8.000000000 -s 2 -d -1 -p WCETT -e 284 -c 2 -a 0 -i 0 -k RTR
+ -t 8.000000000 -s 3 -d -1 -p WCETT -e 284 -c 2 -a 0 -i 0 -k RTR 
- -t 8.000000000 -s 3 -d -1 -p WCETT -e 284 -c 2 -a 0 -i 0 -k RTR
h -t 8.000000000 -s 3 -d -1 -p WCETT -e 284 -c 2 -a 0 -i 0 -k RTR