n -t * -s 0  -x 100 -y 0 -Z 0 -z 30  -v circle -c black
n -t * -s 1  -x 300 -y 0 -Z 0 -z 30  -v circle -c black
n -t * -s 2  -x 500 -y 0 -Z 0 -z 30  -v circle -c black
n -t * -s 3  -x 100 -y 100 -Z 0 -z 30  -v circle -c black
n -t * -s 4  -x 300 -y 100 -Z 0 -z 30  -v circle -c black
n -t * -s 5  -x 500 -y 100 -Z 0 -z 30  -v circle -c black
n -t * -s 6  -x 100 -y 200 -Z 0 -z 30  -v circle -c black
n -t * -s 7  -x 300 -y 200 -Z 0 -z 30  -v circle -c black
n -t * -s 8  -x 500 -y 200 -Z 0 -z 30  -v circle -c black
n -t * -s 9  -x 100 -y 300 -Z 0 -z 30  -v circle -c black
n -t * -s 10  -x 300 -y 300 -Z 0 -z 30  -v circle -c black
n -t * -s 11  -x 500 -y 300 -Z 0 -z 30  -v circle -c black
n -t * -s 12  -x 100 -y 400 -Z 0 -z 30  -v circle -c black
n -t * -s 13  -x 300 -y 400 -Z 0 -z 30  -v circle -c black
n -t * -s 14  -x 500 -y 400 -Z 0 -z 30  -v circle -c black
n -t * -s 15  -x 100 -y 500 -Z 0 -z 30  -v circle -c black
n -t * -s 16  -x 300 -y 500 -Z 0 -z 30  -v circle -c black
n -t * -s 17  -x 500 -y 500 -Z 0 -z 30  -v circle -c black
n -t * -s 18  -x 400 -y 500 -Z 0 -z 30  -v circle -c black
n -t * -s 19  -x 200 -y 500 -Z 0 -z 30  -v circle -c black
n -t * -s 20  -x 400 -y 400 -Z 0 -z 30  -v circle -c black
n -t * -s 21  -x 200 -y 400 -Z 0 -z 30  -v circle -c black
n -t * -s 22  -x 400 -y 300 -Z 0 -z 30  -v circle -c black
n -t * -s 23  -x 200 -y 300 -Z 0 -z 30  -v circle -c black
n -t * -s 24  -x 400 -y 200 -Z 0 -z 30  -v circle -c black
n -t * -s 25  -x 200 -y 200 -Z 0 -z 30  -v circle -c black
V -t * -v 1.0a5 -a 0
W -t * -x 500 -y 500
A -t * -n 1 -p 0 -o 0xffffffff -c 31 -a 1
A -t * -h 1 -m 2147483647 -s 0
+ -t 0.000000000 -s 0 -d -1 -p WCETT -e 284 -c 2 -a 0 -i 0 -k RTR 
- -t 0.000000000 -s 0 -d -1 -p WCETT -e 284 -c 2 -a 0 -i 0 -k RTR
h -t 0.000000000 -s 0 -d -1 -p WCETT -e 284 -c 2 -a 0 -i 0 -k RTR
+ -t 0.000000000 -s 1 -d -1 -p WCETT -e 284 -c 2 -a 0 -i 0 -k RTR 
- -t 0.000000000 -s 1 -d -1 -p WCETT -e 284 -c 2 -a 0 -i 0 -k RTR
h -t 0.000000000 -s 1 -d -1 -p WCETT -e 284 -c 2 -a 0 -i 0 -k RTR
+ -t 0.000000000 -s 2 -d -1 -p WCETT -e 284 -c 2 -a 0 -i 0 -k RTR 
- -t 0.000000000 -s 2 -d -1 -p WCETT -e 284 -c 2 -a 0 -i 0 -k RTR
h -t 0.000000000 -s 2 -d -1 -p WCETT -e 284 -c 2 -a 0 -i 0 -k RTR
+ -t 0.000000000 -s 3 -d -1 -p WCETT -e 284 -c 2 -a 0 -i 0 -k RTR 
- -t 0.000000000 -s 3 -d -1 -p WCETT -e 284 -c 2 -a 0 -i 0 -k RTR
h -t 0.000000000 -s 3 -d -1 -p WCETT -e 284 -c 2 -a 0 -i 0 -k RTR
+ -t 0.000000000 -s 4 -d -1 -p WCETT -e 284 -c 2 -a 0 -i 0 -k RTR 
- -t 0.000000000 -s 4 -d -1 -p WCETT -e 284 -c 2 -a 0 -i 0 -k RTR
h -t 0.000000000 -s 4 -d -1 -p WCETT -e 284 -c 2 -a 0 -i 0 -k RTR
+ -t 0.000000000 -s 5 -d -1 -p WCETT -e 284 -c 2 -a 0 -i 0 -k RTR 
- -t 0.000000000 -s 5 -d -1 -p WCETT -e 284 -c 2 -a 0 -i 0 -k RTR
h -t 0.000000000 -s 5 -d -1 -p WCETT -e 284 -c 2 -a 0 -i 0 -k RTR
+ -t 0.000000000 -s 6 -d -1 -p WCETT -e 284 -c 2 -a 0 -i 0 -k RTR 
- -t 0.000000000 -s 6 -d -1 -p WCETT -e 284 -c 2 -a 0 -i 0 -k RTR
h -t 0.000000000 -s 6 -d -1 -p WCETT -e 284 -c 2 -a 0 -i 0 -k RTR
+ -t 0.000000000 -s 7 -d -1 -p WCETT -e 284 -c 2 -a 0 -i 0 -k RTR 
- -t 0.000000000 -s 7 -d -1 -p WCETT -e 284 -c 2 -a 0 -i 0 -k RTR
h -t 0.000000000 -s 7 -d -1 -p WCETT -e 284 -c 2 -a 0 -i 0 -k RTR
+ -t 0.000000000 -s 8 -d -1 -p WCETT -e 284 -c 2 -a 0 -i 0 -k RTR 
- -t 0.000000000 -s 8 -d -1 -p WCETT -e 284 -c 2 -a 0 -i 0 -k RTR
h -t 0.000000000 -s 8 -d -1 -p WCETT -e 284 -c 2 -a 0 -i 0 -k RTR
+ -t 0.000000000 -s 9 -d -1 -p WCETT -e 284 -c 2 -a 0 -i 0 -k RTR 
- -t 0.000000000 -s 9 -d -1 -p WCETT -e 284 -c 2 -a 0 -i 0 -k RTR
h -t 0.000000000 -s 9 -d -1 -p WCETT -e 284 -c 2 -a 0 -i 0 -k RTR
+ -t 0.000000000 -s 10 -d -1 -p WCETT -e 284 -c 2 -a 0 -i 0 -k RTR 
- -t 0.000000000 -s 10 -d -1 -p WCETT -e 284 -c 2 -a 0 -i 0 -k RTR
h -t 0.000000000 -s 10 -d -1 -p WCETT -e 284 -c 2 -a 0 -i 0 -k RTR
+ -t 0.000000000 -s 11 -d -1 -p WCETT -e 284 -c 2 -a 0 -i 0 -k RTR 
- -t 0.000000000 -s 11 -d -1 -p WCETT -e 284 -c 2 -a 0 -i 0 -k RTR
h -t 0.000000000 -s 11 -d -1 -p WCETT -e 284 -c 2 -a 0 -i 0 -k RTR
+ -t 0.000000000 -s 12 -d -1 -p WCETT -e 284 -c 2 -a 0 -i 0 -k RTR 
- -t 0.000000000 -s 12 -d -1 -p WCETT -e 284 -c 2 -a 0 -i 0 -k RTR
h -t 0.000000000 -s 12 -d -1 -p WCETT -e 284 -c 2 -a 0 -i 0 -k RTR
+ -t 0.000000000 -s 13 -d -1 -p WCETT -e 284 -c 2 -a 0 -i 0 -k RTR 
- -t 0.000000000 -s 13 -d -1 -p WCETT -e 284 -c 2 -a 0 -i 0 -k RTR
h -t 0.000000000 -s 13 -d -1 -p WCETT -e 284 -c 2 -a 0 -i 0 -k RTR
+ -t 0.000000000 -s 14 -d -1 -p WCETT -e 284 -c 2 -a 0 -i 0 -k RTR 
- -t 0.000000000 -s 14 -d -1 -p WCETT -e 284 -c 2 -a 0 -i 0 -k RTR
h -t 0.000000000 -s 14 -d -1 -p WCETT -e 284 -c 2 -a 0 -i 0 -k RTR
+ -t 0.000000000 -s 15 -d -1 -p WCETT -e 284 -c 2 -a 0 -i 0 -k RTR 
- -t 0.000000000 -s 15 -d -1 -p WCETT -e 284 -c 2 -a 0 -i 0 -k RTR
h -t 0.000000000 -s 15 -d -1 -p WCETT -e 284 -c 2 -a 0 -i 0 -k RTR
+ -t 0.000000000 -s 16 -d -1 -p WCETT -e 284 -c 2 -a 0 -i 0 -k RTR 
- -t 0.000000000 -s 16 -d -1 -p WCETT -e 284 -c 2 -a 0 -i 0 -k RTR
h -t 0.000000000 -s 16 -d -1 -p WCETT -e 284 -c 2 -a 0 -i 0 -k RTR
+ -t 0.000000000 -s 17 -d -1 -p WCETT -e 284 -c 2 -a 0 -i 0 -k RTR 
- -t 0.000000000 -s 17 -d -1 -p WCETT -e 284 -c 2 -a 0 -i 0 -k RTR
h -t 0.000000000 -s 17 -d -1 -p WCETT -e 284 -c 2 -a 0 -i 0 -k RTR
+ -t 0.000000000 -s 18 -d -1 -p WCETT -e 284 -c 2 -a 0 -i 0 -k RTR 
- -t 0.000000000 -s 18 -d -1 -p WCETT -e 284 -c 2 -a 0 -i 0 -k RTR
h -t 0.000000000 -s 18 -d -1 -p WCETT -e 284 -c 2 -a 0 -i 0 -k RTR
+ -t 0.000000000 -s 19 -d -1 -p WCETT -e 284 -c 2 -a 0 -i 0 -k RTR 
- -t 0.000000000 -s 19 -d -1 -p WCETT -e 284 -c 2 -a 0 -i 0 -k RTR
h -t 0.000000000 -s 19 -d -1 -p WCETT -e 284 -c 2 -a 0 -i 0 -k RTR
+ -t 0.000000000 -s 20 -d -1 -p WCETT -e 284 -c 2 -a 0 -i 0 -k RTR 
- -t 0.000000000 -s 20 -d -1 -p WCETT -e 284 -c 2 -a 0 -i 0 -k RTR
h -t 0.000000000 -s 20 -d -1 -p WCETT -e 284 -c 2 -a 0 -i 0 -k RTR
+ -t 0.000000000 -s 21 -d -1 -p WCETT -e 284 -c 2 -a 0 -i 0 -k RTR 
- -t 0.000000000 -s 21 -d -1 -p WCETT -e 284 -c 2 -a 0 -i 0 -k RTR
h -t 0.000000000 -s 21 -d -1 -p WCETT -e 284 -c 2 -a 0 -i 0 -k RTR
+ -t 0.000000000 -s 22 -d -1 -p WCETT -e 284 -c 2 -a 0 -i 0 -k RTR 
- -t 0.000000000 -s 22 -d -1 -p WCETT -e 284 -c 2 -a 0 -i 0 -k RTR
h -t 0.000000000 -s 22 -d -1 -p WCETT -e 284 -c 2 -a 0 -i 0 -k RTR
+ -t 0.000000000 -s 23 -d -1 -p WCETT -e 284 -c 2 -a 0 -i 0 -k RTR 
- -t 0.000000000 -s 23 -d -1 -p WCETT -e 284 -c 2 -a 0 -i 0 -k RTR
h -t 0.000000000 -s 23 -d -1 -p WCETT -e 284 -c 2 -a 0 -i 0 -k RTR
+ -t 0.000000000 -s 24 -d -1 -p WCETT -e 284 -c 2 -a 0 -i 0 -k RTR 
- -t 0.000000000 -s 24 -d -1 -p WCETT -e 284 -c 2 -a 0 -i 0 -k RTR
h -t 0.000000000 -s 24 -d -1 -p WCETT -e 284 -c 2 -a 0 -i 0 -k RTR
+ -t 0.000000000 -s 25 -d -1 -p WCETT -e 284 -c 2 -a 0 -i 0 -k RTR 
- -t 0.000000000 -s 25 -d -1 -p WCETT -e 284 -c 2 -a 0 -i 0 -k RTR
h -t 0.000000000 -s 25 -d -1 -p WCETT -e 284 -c 2 -a 0 -i 0 -k RTR
r -t 0.002788333 -s 2 -d -1 -p WCETT -e 284 -c 2 -a 0 -i 0 -k RTR
r -t 0.002788333 -s 8 -d -1 -p WCETT -e 284 -c 2 -a 0 -i 0 -k RTR
r -t 0.002788471 -s 24 -d -1 -p WCETT -e 284 -c 2 -a 0 -i 0 -k RTR
r -t 0.002788667 -s 4 -d -1 -p WCETT -e 284 -c 2 -a 0 -i 0 -k RTR
r -t 0.002788667 -s 11 -d -1 -p WCETT -e 284 -c 2 -a 0 -i 0 -k RTR
r -t 0.002788745 -s 1 -d -1 -p WCETT -e 284 -c 2 -a 0 -i 0 -k RTR
r -t 0.006086667 -s 5 -d -1 -p WCETT -e 284 -c 2 -a 0 -i 0 -k RTR
r -t 0.006087000 -s 1 -d -1 -p WCETT -e 284 -c 2 -a 0 -i 0 -k RTR
r -t 0.006087000 -s 8 -d -1 -p WCETT -e 284 -c 2 -a 0 -i 0 -k RTR
r -t 0.006290667 -s 15 -d -1 -p WCETT -e 284 -c 2 -a 0 -i 0 -k RTR
r -t 0.006290805 -s 19 -d -1 -p WCETT -e 284 -c 2 -a 0 -i 0 -k RTR
r -t 0.009329138 -s 15 -d -1 -p WCETT -e 284 -c 2 -a 0 -i 0 -k RTR
r -t 0.009329138 -s 21 -d -1 -p WCETT -e 284 -c 2 -a 0 -i 0 -k RTR
r -t 0.009329138 -s 16 -d -1 -p WCETT -e 284 -c 2 -a 0 -i 0 -k RTR
r -t 0.009329276 -s 12 -d -1 -p WCETT -e 284 -c 2 -a 0 -i 0 -k RTR
r -t 0.009329276 -s 13 -d -1 -p WCETT -e 284 -c 2 -a 0 -i 0 -k RTR
r -t 0.009329471 -s 23 -d -1 -p WCETT -e 284 -c 2 -a 0 -i 0 -k RTR
r -t 0.009329471 -s 18 -d -1 -p WCETT -e 284 -c 2 -a 0 -i 0 -k RTR
r -t 0.009329550 -s 9 -d -1 -p WCETT -e 284 -c 2 -a 0 -i 0 -k RTR
r -t 0.009329550 -s 10 -d -1 -p WCETT -e 284 -c 2 -a 0 -i 0 -k RTR
r -t 0.009329550 -s 20 -d -1 -p WCETT -e 284 -c 2 -a 0 -i 0 -k RTR
r -t 0.012087805 -s 21 -d -1 -p WCETT -e 284 -c 2 -a 0 -i 0 -k RTR
r -t 0.012087805 -s 9 -d -1 -p WCETT -e 284 -c 2 -a 0 -i 0 -k RTR
r -t 0.012087805 -s 25 -d -1 -p WCETT -e 284 -c 2 -a 0 -i 0 -k RTR
r -t 0.012087805 -s 10 -d -1 -p WCETT -e 284 -c 2 -a 0 -i 0 -k RTR
r -t 0.012087943 -s 12 -d -1 -p WCETT -e 284 -c 2 -a 0 -i 0 -k RTR
r -t 0.012087943 -s 6 -d -1 -p WCETT -e 284 -c 2 -a 0 -i 0 -k RTR
r -t 0.012087943 -s 7 -d -1 -p WCETT -e 284 -c 2 -a 0 -i 0 -k RTR
r -t 0.012087943 -s 13 -d -1 -p WCETT -e 284 -c 2 -a 0 -i 0 -k RTR
r -t 0.012088138 -s 19 -d -1 -p WCETT -e 284 -c 2 -a 0 -i 0 -k RTR
r -t 0.012088138 -s 22 -d -1 -p WCETT -e 284 -c 2 -a 0 -i 0 -k RTR
r -t 0.012088217 -s 15 -d -1 -p WCETT -e 284 -c 2 -a 0 -i 0 -k RTR
r -t 0.012088217 -s 3 -d -1 -p WCETT -e 284 -c 2 -a 0 -i 0 -k RTR
r -t 0.012088217 -s 4 -d -1 -p WCETT -e 284 -c 2 -a 0 -i 0 -k RTR
r -t 0.012088217 -s 16 -d -1 -p WCETT -e 284 -c 2 -a 0 -i 0 -k RTR
r -t 0.012088217 -s 20 -d -1 -p WCETT -e 284 -c 2 -a 0 -i 0 -k RTR
r -t 0.012088217 -s 24 -d -1 -p WCETT -e 284 -c 2 -a 0 -i 0 -k RTR
r -t 0.014986276 -s 3 -d -1 -p WCETT -e 284 -c 2 -a 0 -i 0 -k RTR
r -t 0.014986276 -s 9 -d -1 -p WCETT -e 284 -c 2 -a 0 -i 0 -k RTR
r -t 0.014986276 -s 25 -d -1 -p WCETT -e 284 -c 2 -a 0 -i 0 -k RTR
r -t 0.014986414 -s 23 -d -1 -p WCETT -e 284 -c 2 -a 0 -i 0 -k RTR
r -t 0.014986609 -s 0 -d -1 -p WCETT -e 284 -c 2 -a 0 -i 0 -k RTR
r -t 0.014986609 -s 12 -d -1 -p WCETT -e 284 -c 2 -a 0 -i 0 -k RTR
r -t 0.014986609 -s 7 -d -1 -p WCETT -e 284 -c 2 -a 0 -i 0 -k RTR
r -t 0.014986688 -s 21 -d -1 -p WCETT -e 284 -c 2 -a 0 -i 0 -k RTR
r -t 0.014986688 -s 4 -d -1 -p WCETT -e 284 -c 2 -a 0 -i 0 -k RTR
r -t 0.014986688 -s 10 -d -1 -p WCETT -e 284 -c 2 -a 0 -i 0 -k RTR
r -t 0.017745021 -s 19 -d -1 -p WCETT -e 284 -c 2 -a 0 -i 0 -k RTR
r -t 0.017745021 -s 12 -d -1 -p WCETT -e 284 -c 2 -a 0 -i 0 -k RTR
r -t 0.017745021 -s 23 -d -1 -p WCETT -e 284 -c 2 -a 0 -i 0 -k RTR
r -t 0.017745021 -s 13 -d -1 -p WCETT -e 284 -c 2 -a 0 -i 0 -k RTR
r -t 0.017745160 -s 15 -d -1 -p WCETT -e 284 -c 2 -a 0 -i 0 -k RTR
r -t 0.017745160 -s 9 -d -1 -p WCETT -e 284 -c 2 -a 0 -i 0 -k RTR
r -t 0.017745160 -s 10 -d -1 -p WCETT -e 284 -c 2 -a 0 -i 0 -k RTR
r -t 0.017745160 -s 16 -d -1 -p WCETT -e 284 -c 2 -a 0 -i 0 -k RTR
r -t 0.017745355 -s 25 -d -1 -p WCETT -e 284 -c 2 -a 0 -i 0 -k RTR
r -t 0.017745355 -s 20 -d -1 -p WCETT -e 284 -c 2 -a 0 -i 0 -k RTR
r -t 0.017745434 -s 6 -d -1 -p WCETT -e 284 -c 2 -a 0 -i 0 -k RTR
r -t 0.017745434 -s 7 -d -1 -p WCETT -e 284 -c 2 -a 0 -i 0 -k RTR
r -t 0.017745434 -s 18 -d -1 -p WCETT -e 284 -c 2 -a 0 -i 0 -k RTR
r -t 0.017745434 -s 22 -d -1 -p WCETT -e 284 -c 2 -a 0 -i 0 -k RTR
r -t 0.020503767 -s 4 -d -1 -p WCETT -e 284 -c 2 -a 0 -i 0 -k RTR
r -t 0.020503767 -s 25 -d -1 -p WCETT -e 284 -c 2 -a 0 -i 0 -k RTR
r -t 0.020503767 -s 10 -d -1 -p WCETT -e 284 -c 2 -a 0 -i 0 -k RTR
r -t 0.020503767 -s 24 -d -1 -p WCETT -e 284 -c 2 -a 0 -i 0 -k RTR
r -t 0.020503905 -s 23 -d -1 -p WCETT -e 284 -c 2 -a 0 -i 0 -k RTR
r -t 0.020503905 -s 22 -d -1 -p WCETT -e 284 -c 2 -a 0 -i 0 -k RTR
r -t 0.020504100 -s 1 -d -1 -p WCETT -e 284 -c 2 -a 0 -i 0 -k RTR
r -t 0.020504100 -s 6 -d -1 -p WCETT -e 284 -c 2 -a 0 -i 0 -k RTR
r -t 0.020504100 -s 13 -d -1 -p WCETT -e 284 -c 2 -a 0 -i 0 -k RTR
r -t 0.020504100 -s 8 -d -1 -p WCETT -e 284 -c 2 -a 0 -i 0 -k RTR
r -t 0.020504179 -s 21 -d -1 -p WCETT -e 284 -c 2 -a 0 -i 0 -k RTR
r -t 0.020504179 -s 9 -d -1 -p WCETT -e 284 -c 2 -a 0 -i 0 -k RTR
r -t 0.020504179 -s 3 -d -1 -p WCETT -e 284 -c 2 -a 0 -i 0 -k RTR
r -t 0.020504179 -s 20 -d -1 -p WCETT -e 284 -c 2 -a 0 -i 0 -k RTR
r -t 0.020504179 -s 5 -d -1 -p WCETT -e 284 -c 2 -a 0 -i 0 -k RTR
r -t 0.020504179 -s 11 -d -1 -p WCETT -e 284 -c 2 -a 0 -i 0 -k RTR
r -t 0.023282100 -s 23 -d -1 -p WCETT -e 284 -c 2 -a 0 -i 0 -k RTR
r -t 0.023282100 -s 22 -d -1 -p WCETT -e 284 -c 2 -a 0 -i 0 -k RTR
r -t 0.023282238 -s 10 -d -1 -p WCETT -e 284 -c 2 -a 0 -i 0 -k RTR
r -t 0.023282238 -s 11 -d -1 -p WCETT -e 284 -c 2 -a 0 -i 0 -k RTR
r -t 0.023282767 -s 0 -d -1 -p WCETT -e 284 -c 2 -a 0 -i 0 -k RTR
r -t 0.026425179 -s 22 -d -1 -p WCETT -e 284 -c 2 -a 0 -i 0 -k RTR
r -t 0.026425179 -s 7 -d -1 -p WCETT -e 284 -c 2 -a 0 -i 0 -k RTR
r -t 0.026425179 -s 8 -d -1 -p WCETT -e 284 -c 2 -a 0 -i 0 -k RTR
r -t 0.026425317 -s 4 -d -1 -p WCETT -e 284 -c 2 -a 0 -i 0 -k RTR
r -t 0.026425317 -s 5 -d -1 -p WCETT -e 284 -c 2 -a 0 -i 0 -k RTR
r -t 0.026425317 -s 11 -d -1 -p WCETT -e 284 -c 2 -a 0 -i 0 -k RTR
r -t 0.026425591 -s 1 -d -1 -p WCETT -e 284 -c 2 -a 0 -i 0 -k RTR
r -t 0.026425591 -s 2 -d -1 -p WCETT -e 284 -c 2 -a 0 -i 0 -k RTR
r -t 0.029568572 -s 18 -d -1 -p WCETT -e 284 -c 2 -a 0 -i 0 -k RTR
r -t 0.029568572 -s 13 -d -1 -p WCETT -e 284 -c 2 -a 0 -i 0 -k RTR
r -t 0.029568572 -s 22 -d -1 -p WCETT -e 284 -c 2 -a 0 -i 0 -k RTR
r -t 0.029568572 -s 14 -d -1 -p WCETT -e 284 -c 2 -a 0 -i 0 -k RTR
r -t 0.029568710 -s 16 -d -1 -p WCETT -e 284 -c 2 -a 0 -i 0 -k RTR
r -t 0.029568710 -s 10 -d -1 -p WCETT -e 284 -c 2 -a 0 -i 0 -k RTR
r -t 0.029568710 -s 11 -d -1 -p WCETT -e 284 -c 2 -a 0 -i 0 -k RTR
r -t 0.029568710 -s 17 -d -1 -p WCETT -e 284 -c 2 -a 0 -i 0 -k RTR
r -t 0.029568984 -s 19 -d -1 -p WCETT -e 284 -c 2 -a 0 -i 0 -k RTR
r -t 0.029568984 -s 8 -d -1 -p WCETT -e 284 -c 2 -a 0 -i 0 -k RTR
r -t 0.029569591 -s 0 -d -1 -p WCETT -e 284 -c 2 -a 0 -i 0 -k RTR
r -t 0.032387043 -s 14 -d -1 -p WCETT -e 284 -c 2 -a 0 -i 0 -k RTR
r -t 0.032387043 -s 18 -d -1 -p WCETT -e 284 -c 2 -a 0 -i 0 -k RTR
r -t 0.032387181 -s 20 -d -1 -p WCETT -e 284 -c 2 -a 0 -i 0 -k RTR
r -t 0.032387376 -s 11 -d -1 -p WCETT -e 284 -c 2 -a 0 -i 0 -k RTR
r -t 0.032387376 -s 16 -d -1 -p WCETT -e 284 -c 2 -a 0 -i 0 -k RTR
r -t 0.032387455 -s 22 -d -1 -p WCETT -e 284 -c 2 -a 0 -i 0 -k RTR
r -t 0.032387455 -s 13 -d -1 -p WCETT -e 284 -c 2 -a 0 -i 0 -k RTR
r -t 0.033032238 -s 3 -d -1 -p WCETT -e 284 -c 2 -a 0 -i 0 -k RTR
r -t 0.035225376 -s 11 -d -1 -p WCETT -e 284 -c 2 -a 0 -i 0 -k RTR
r -t 0.035225376 -s 20 -d -1 -p WCETT -e 284 -c 2 -a 0 -i 0 -k RTR
r -t 0.035225376 -s 17 -d -1 -p WCETT -e 284 -c 2 -a 0 -i 0 -k RTR
r -t 0.035225514 -s 22 -d -1 -p WCETT -e 284 -c 2 -a 0 -i 0 -k RTR
r -t 0.035225514 -s 18 -d -1 -p WCETT -e 284 -c 2 -a 0 -i 0 -k RTR
r -t 0.035225710 -s 13 -d -1 -p WCETT -e 284 -c 2 -a 0 -i 0 -k RTR
r -t 0.035225788 -s 16 -d -1 -p WCETT -e 284 -c 2 -a 0 -i 0 -k RTR
r -t 0.038103710 -s 8 -d -1 -p WCETT -e 284 -c 2 -a 0 -i 0 -k RTR
r -t 0.038103710 -s 22 -d -1 -p WCETT -e 284 -c 2 -a 0 -i 0 -k RTR
r -t 0.038103710 -s 14 -d -1 -p WCETT -e 284 -c 2 -a 0 -i 0 -k RTR
r -t 0.038103848 -s 24 -d -1 -p WCETT -e 284 -c 2 -a 0 -i 0 -k RTR
r -t 0.038103848 -s 20 -d -1 -p WCETT -e 284 -c 2 -a 0 -i 0 -k RTR
r -t 0.038104043 -s 5 -d -1 -p WCETT -e 284 -c 2 -a 0 -i 0 -k RTR
r -t 0.038104043 -s 10 -d -1 -p WCETT -e 284 -c 2 -a 0 -i 0 -k RTR
r -t 0.038104043 -s 17 -d -1 -p WCETT -e 284 -c 2 -a 0 -i 0 -k RTR
r -t 0.038104122 -s 18 -d -1 -p WCETT -e 284 -c 2 -a 0 -i 0 -k RTR
r -t 0.038104122 -s 13 -d -1 -p WCETT -e 284 -c 2 -a 0 -i 0 -k RTR
r -t 0.038104122 -s 7 -d -1 -p WCETT -e 284 -c 2 -a 0 -i 0 -k RTR
r -t 0.040922455 -s 10 -d -1 -p WCETT -e 284 -c 2 -a 0 -i 0 -k RTR
r -t 0.040922455 -s 21 -d -1 -p WCETT -e 284 -c 2 -a 0 -i 0 -k RTR
r -t 0.040922455 -s 16 -d -1 -p WCETT -e 284 -c 2 -a 0 -i 0 -k RTR
r -t 0.040922455 -s 20 -d -1 -p WCETT -e 284 -c 2 -a 0 -i 0 -k RTR
r -t 0.040922593 -s 23 -d -1 -p WCETT -e 284 -c 2 -a 0 -i 0 -k RTR
r -t 0.040922593 -s 19 -d -1 -p WCETT -e 284 -c 2 -a 0 -i 0 -k RTR
r -t 0.040922593 -s 18 -d -1 -p WCETT -e 284 -c 2 -a 0 -i 0 -k RTR
r -t 0.040922593 -s 22 -d -1 -p WCETT -e 284 -c 2 -a 0 -i 0 -k RTR
r -t 0.040922788 -s 7 -d -1 -p WCETT -e 284 -c 2 -a 0 -i 0 -k RTR
r -t 0.040922788 -s 12 -d -1 -p WCETT -e 284 -c 2 -a 0 -i 0 -k RTR
r -t 0.040922788 -s 14 -d -1 -p WCETT -e 284 -c 2 -a 0 -i 0 -k RTR
r -t 0.040922867 -s 25 -d -1 -p WCETT -e 284 -c 2 -a 0 -i 0 -k RTR
r -t 0.040922867 -s 15 -d -1 -p WCETT -e 284 -c 2 -a 0 -i 0 -k RTR
r -t 0.040922867 -s 9 -d -1 -p WCETT -e 284 -c 2 -a 0 -i 0 -k RTR
r -t 0.040922867 -s 24 -d -1 -p WCETT -e 284 -c 2 -a 0 -i 0 -k RTR
r -t 0.040922867 -s 11 -d -1 -p WCETT -e 284 -c 2 -a 0 -i 0 -k RTR
r -t 0.040922867 -s 17 -d -1 -p WCETT -e 284 -c 2 -a 0 -i 0 -k RTR
r -t 0.043681200 -s 6 -d -1 -p WCETT -e 284 -c 2 -a 0 -i 0 -k RTR
r -t 0.043681200 -s 12 -d -1 -p WCETT -e 284 -c 2 -a 0 -i 0 -k RTR
r -t 0.043681200 -s 23 -d -1 -p WCETT -e 284 -c 2 -a 0 -i 0 -k RTR
r -t 0.043681338 -s 21 -d -1 -p WCETT -e 284 -c 2 -a 0 -i 0 -k RTR
r -t 0.043681338 -s 25 -d -1 -p WCETT -e 284 -c 2 -a 0 -i 0 -k RTR
r -t 0.043681534 -s 3 -d -1 -p WCETT -e 284 -c 2 -a 0 -i 0 -k RTR
r -t 0.043681534 -s 15 -d -1 -p WCETT -e 284 -c 2 -a 0 -i 0 -k RTR
r -t 0.043681534 -s 10 -d -1 -p WCETT -e 284 -c 2 -a 0 -i 0 -k RTR
r -t 0.043681612 -s 19 -d -1 -p WCETT -e 284 -c 2 -a 0 -i 0 -k RTR
r -t 0.043681612 -s 7 -d -1 -p WCETT -e 284 -c 2 -a 0 -i 0 -k RTR
r -t 0.043681612 -s 13 -d -1 -p WCETT -e 284 -c 2 -a 0 -i 0 -k RTR
r -t 0.046519672 -s 23 -d -1 -p WCETT -e 284 -c 2 -a 0 -i 0 -k RTR
r -t 0.046519672 -s 6 -d -1 -p WCETT -e 284 -c 2 -a 0 -i 0 -k RTR
r -t 0.046519672 -s 7 -d -1 -p WCETT -e 284 -c 2 -a 0 -i 0 -k RTR
r -t 0.046519810 -s 9 -d -1 -p WCETT -e 284 -c 2 -a 0 -i 0 -k RTR
r -t 0.046519810 -s 3 -d -1 -p WCETT -e 284 -c 2 -a 0 -i 0 -k RTR
r -t 0.046519810 -s 4 -d -1 -p WCETT -e 284 -c 2 -a 0 -i 0 -k RTR
r -t 0.046519810 -s 10 -d -1 -p WCETT -e 284 -c 2 -a 0 -i 0 -k RTR
r -t 0.046520005 -s 21 -d -1 -p WCETT -e 284 -c 2 -a 0 -i 0 -k RTR
r -t 0.046520005 -s 24 -d -1 -p WCETT -e 284 -c 2 -a 0 -i 0 -k RTR
r -t 0.046520084 -s 12 -d -1 -p WCETT -e 284 -c 2 -a 0 -i 0 -k RTR
r -t 0.046520084 -s 0 -d -1 -p WCETT -e 284 -c 2 -a 0 -i 0 -k RTR
r -t 0.046520084 -s 1 -d -1 -p WCETT -e 284 -c 2 -a 0 -i 0 -k RTR
r -t 0.046520084 -s 13 -d -1 -p WCETT -e 284 -c 2 -a 0 -i 0 -k RTR
r -t 0.046520084 -s 22 -d -1 -p WCETT -e 284 -c 2 -a 0 -i 0 -k RTR
r -t 0.049278143 -s 1 -d -1 -p WCETT -e 284 -c 2 -a 0 -i 0 -k RTR
r -t 0.049278143 -s 7 -d -1 -p WCETT -e 284 -c 2 -a 0 -i 0 -k RTR
r -t 0.049278281 -s 25 -d -1 -p WCETT -e 284 -c 2 -a 0 -i 0 -k RTR
r -t 0.049278281 -s 24 -d -1 -p WCETT -e 284 -c 2 -a 0 -i 0 -k RTR
r -t 0.049278477 -s 3 -d -1 -p WCETT -e 284 -c 2 -a 0 -i 0 -k RTR
r -t 0.049278477 -s 10 -d -1 -p WCETT -e 284 -c 2 -a 0 -i 0 -k RTR
r -t 0.049278477 -s 5 -d -1 -p WCETT -e 284 -c 2 -a 0 -i 0 -k RTR
r -t 0.049278555 -s 23 -d -1 -p WCETT -e 284 -c 2 -a 0 -i 0 -k RTR
r -t 0.049278555 -s 6 -d -1 -p WCETT -e 284 -c 2 -a 0 -i 0 -k RTR
r -t 0.049278555 -s 0 -d -1 -p WCETT -e 284 -c 2 -a 0 -i 0 -k RTR
r -t 0.049278555 -s 22 -d -1 -p WCETT -e 284 -c 2 -a 0 -i 0 -k RTR
r -t 0.049278555 -s 2 -d -1 -p WCETT -e 284 -c 2 -a 0 -i 0 -k RTR
r -t 0.049278555 -s 8 -d -1 -p WCETT -e 284 -c 2 -a 0 -i 0 -k RTR
r -t 0.052056889 -s 5 -d -1 -p WCETT -e 284 -c 2 -a 0 -i 0 -k RTR
r -t 0.052056889 -s 24 -d -1 -p WCETT -e 284 -c 2 -a 0 -i 0 -k RTR
r -t 0.052056889 -s 11 -d -1 -p WCETT -e 284 -c 2 -a 0 -i 0 -k RTR
r -t 0.052057027 -s 22 -d -1 -p WCETT -e 284 -c 2 -a 0 -i 0 -k RTR
r -t 0.052057222 -s 2 -d -1 -p WCETT -e 284 -c 2 -a 0 -i 0 -k RTR
r -t 0.052057222 -s 7 -d -1 -p WCETT -e 284 -c 2 -a 0 -i 0 -k RTR
r -t 0.052057222 -s 14 -d -1 -p WCETT -e 284 -c 2 -a 0 -i 0 -k RTR
r -t 0.052057301 -s 20 -d -1 -p WCETT -e 284 -c 2 -a 0 -i 0 -k RTR
r -t 0.052057301 -s 10 -d -1 -p WCETT -e 284 -c 2 -a 0 -i 0 -k RTR
r -t 0.052057301 -s 4 -d -1 -p WCETT -e 284 -c 2 -a 0 -i 0 -k RTR
r -t 0.055179943 -s 16 -d -1 -p WCETT -e 284 -c 2 -a 0 -i 0 -k RTR
r -t 0.055179943 -s 20 -d -1 -p WCETT -e 284 -c 2 -a 0 -i 0 -k RTR
r -t 0.055179943 -s 17 -d -1 -p WCETT -e 284 -c 2 -a 0 -i 0 -k RTR
r -t 0.055180081 -s 13 -d -1 -p WCETT -e 284 -c 2 -a 0 -i 0 -k RTR
r -t 0.055180081 -s 14 -d -1 -p WCETT -e 284 -c 2 -a 0 -i 0 -k RTR
r -t 0.055180276 -s 19 -d -1 -p WCETT -e 284 -c 2 -a 0 -i 0 -k RTR
r -t 0.055180276 -s 22 -d -1 -p WCETT -e 284 -c 2 -a 0 -i 0 -k RTR
r -t 0.055180355 -s 10 -d -1 -p WCETT -e 284 -c 2 -a 0 -i 0 -k RTR
r -t 0.055180355 -s 21 -d -1 -p WCETT -e 284 -c 2 -a 0 -i 0 -k RTR
r -t 0.055180355 -s 11 -d -1 -p WCETT -e 284 -c 2 -a 0 -i 0 -k RTR
+ -t 1.000000000 -s 0 -d -1 -p WCETT -e 284 -c 2 -a 0 -i 0 -k RTR 
- -t 1.000000000 -s 0 -d -1 -p WCETT -e 284 -c 2 -a 0 -i 0 -k RTR
h -t 1.000000000 -s 0 -d -1 -p WCETT -e 284 -c 2 -a 0 -i 0 -k RTR
+ -t 1.000000000 -s 1 -d -1 -p WCETT -e 284 -c 2 -a 0 -i 0 -k RTR 
- -t 1.000000000 -s 1 -d -1 -p WCETT -e 284 -c 2 -a 0 -i 0 -k RTR
h -t 1.000000000 -s 1 -d -1 -p WCETT -e 284 -c 2 -a 0 -i 0 -k RTR
+ -t 1.000000000 -s 2 -d -1 -p WCETT -e 284 -c 2 -a 0 -i 0 -k RTR 
- -t 1.000000000 -s 2 -d -1 -p WCETT -e 284 -c 2 -a 0 -i 0 -k RTR
h -t 1.000000000 -s 2 -d -1 -p WCETT -e 284 -c 2 -a 0 -i 0 -k RTR
+ -t 1.000000000 -s 3 -d -1 -p WCETT -e 284 -c 2 -a 0 -i 0 -k RTR 
- -t 1.000000000 -s 3 -d -1 -p WCETT -e 284 -c 2 -a 0 -i 0 -k RTR
h -t 1.000000000 -s 3 -d -1 -p WCETT -e 284 -c 2 -a 0 -i 0 -k RTR
+ -t 1.000000000 -s 4 -d -1 -p WCETT -e 284 -c 2 -a 0 -i 0 -k RTR 
- -t 1.000000000 -s 4 -d -1 -p WCETT -e 284 -c 2 -a 0 -i 0 -k RTR
h -t 1.000000000 -s 4 -d -1 -p WCETT -e 284 -c 2 -a 0 -i 0 -k RTR
+ -t 1.000000000 -s 5 -d -1 -p WCETT -e 284 -c 2 -a 0 -i 0 -k RTR 
- -t 1.000000000 -s 5 -d -1 -p WCETT -e 284 -c 2 -a 0 -i 0 -k RTR
h -t 1.000000000 -s 5 -d -1 -p WCETT -e 284 -c 2 -a 0 -i 0 -k RTR
+ -t 1.000000000 -s 6 -d -1 -p WCETT -e 284 -c 2 -a 0 -i 0 -k RTR 
- -t 1.000000000 -s 6 -d -1 -p WCETT -e 284 -c 2 -a 0 -i 0 -k RTR
h -t 1.000000000 -s 6 -d -1 -p WCETT -e 284 -c 2 -a 0 -i 0 -k RTR
+ -t 1.000000000 -s 7 -d -1 -p WCETT -e 284 -c 2 -a 0 -i 0 -k RTR 
- -t 1.000000000 -s 7 -d -1 -p WCETT -e 284 -c 2 -a 0 -i 0 -k RTR
h -t 1.000000000 -s 7 -d -1 -p WCETT -e 284 -c 2 -a 0 -i 0 -k RTR
+ -t 1.000000000 -s 8 -d -1 -p WCETT -e 284 -c 2 -a 0 -i 0 -k RTR 
- -t 1.000000000 -s 8 -d -1 -p WCETT -e 284 -c 2 -a 0 -i 0 -k RTR
h -t 1.000000000 -s 8 -d -1 -p WCETT -e 284 -c 2 -a 0 -i 0 -k RTR
+ -t 1.000000000 -s 9 -d -1 -p WCETT -e 284 -c 2 -a 0 -i 0 -k RTR 
- -t 1.000000000 -s 9 -d -1 -p WCETT -e 284 -c 2 -a 0 -i 0 -k RTR
h -t 1.000000000 -s 9 -d -1 -p WCETT -e 284 -c 2 -a 0 -i 0 -k RTR
+ -t 1.000000000 -s 10 -d -1 -p WCETT -e 284 -c 2 -a 0 -i 0 -k RTR 
- -t 1.000000000 -s 10 -d -1 -p WCETT -e 284 -c 2 -a 0 -i 0 -k RTR
h -t 1.000000000 -s 10 -d -1 -p WCETT -e 284 -c 2 -a 0 -i 0 -k RTR
+ -t 1.000000000 -s 11 -d -1 -p WCETT -e 284 -c 2 -a 0 -i 0 -k RTR 
- -t 1.000000000 -s 11 -d -1 -p WCETT -e 284 -c 2 -a 0 -i 0 -k RTR
h -t 1.000000000 -s 11 -d -1 -p WCETT -e 284 -c 2 -a 0 -i 0 -k RTR
+ -t 1.000000000 -s 12 -d -1 -p WCETT -e 284 -c 2 -a 0 -i 0 -k RTR 
- -t 1.000000000 -s 12 -d -1 -p WCETT -e 284 -c 2 -a 0 -i 0 -k RTR
h -t 1.000000000 -s 12 -d -1 -p WCETT -e 284 -c 2 -a 0 -i 0 -k RTR
+ -t 1.000000000 -s 13 -d -1 -p WCETT -e 284 -c 2 -a 0 -i 0 -k RTR 
- -t 1.000000000 -s 13 -d -1 -p WCETT -e 284 -c 2 -a 0 -i 0 -k RTR
h -t 1.000000000 -s 13 -d -1 -p WCETT -e 284 -c 2 -a 0 -i 0 -k RTR
+ -t 1.000000000 -s 14 -d -1 -p WCETT -e 284 -c 2 -a 0 -i 0 -k RTR 
- -t 1.000000000 -s 14 -d -1 -p WCETT -e 284 -c 2 -a 0 -i 0 -k RTR
h -t 1.000000000 -s 14 -d -1 -p WCETT -e 284 -c 2 -a 0 -i 0 -k RTR
+ -t 1.000000000 -s 15 -d -1 -p WCETT -e 284 -c 2 -a 0 -i 0 -k RTR 
- -t 1.000000000 -s 15 -d -1 -p WCETT -e 284 -c 2 -a 0 -i 0 -k RTR
h -t 1.000000000 -s 15 -d -1 -p WCETT -e 284 -c 2 -a 0 -i 0 -k RTR
+ -t 1.000000000 -s 16 -d -1 -p WCETT -e 284 -c 2 -a 0 -i 0 -k RTR 
- -t 1.000000000 -s 16 -d -1 -p WCETT -e 284 -c 2 -a 0 -i 0 -k RTR
h -t 1.000000000 -s 16 -d -1 -p WCETT -e 284 -c 2 -a 0 -i 0 -k RTR
+ -t 1.000000000 -s 17 -d -1 -p WCETT -e 284 -c 2 -a 0 -i 0 -k RTR 
- -t 1.000000000 -s 17 -d -1 -p WCETT -e 284 -c 2 -a 0 -i 0 -k RTR
h -t 1.000000000 -s 17 -d -1 -p WCETT -e 284 -c 2 -a 0 -i 0 -k RTR
+ -t 1.000000000 -s 18 -d -1 -p WCETT -e 284 -c 2 -a 0 -i 0 -k RTR 
- -t 1.000000000 -s 18 -d -1 -p WCETT -e 284 -c 2 -a 0 -i 0 -k RTR
h -t 1.000000000 -s 18 -d -1 -p WCETT -e 284 -c 2 -a 0 -i 0 -k RTR
+ -t 1.000000000 -s 19 -d -1 -p WCETT -e 284 -c 2 -a 0 -i 0 -k RTR 
- -t 1.000000000 -s 19 -d -1 -p WCETT -e 284 -c 2 -a 0 -i 0 -k RTR
h -t 1.000000000 -s 19 -d -1 -p WCETT -e 284 -c 2 -a 0 -i 0 -k RTR
+ -t 1.000000000 -s 20 -d -1 -p WCETT -e 284 -c 2 -a 0 -i 0 -k RTR 
- -t 1.000000000 -s 20 -d -1 -p WCETT -e 284 -c 2 -a 0 -i 0 -k RTR
h -t 1.000000000 -s 20 -d -1 -p WCETT -e 284 -c 2 -a 0 -i 0 -k RTR
+ -t 1.000000000 -s 21 -d -1 -p WCETT -e 284 -c 2 -a 0 -i 0 -k RTR 
- -t 1.000000000 -s 21 -d -1 -p WCETT -e 284 -c 2 -a 0 -i 0 -k RTR
h -t 1.000000000 -s 21 -d -1 -p WCETT -e 284 -c 2 -a 0 -i 0 -k RTR
+ -t 1.000000000 -s 22 -d -1 -p WCETT -e 284 -c 2 -a 0 -i 0 -k RTR 
- -t 1.000000000 -s 22 -d -1 -p WCETT -e 284 -c 2 -a 0 -i 0 -k RTR
h -t 1.000000000 -s 22 -d -1 -p WCETT -e 284 -c 2 -a 0 -i 0 -k RTR
+ -t 1.000000000 -s 23 -d -1 -p WCETT -e 284 -c 2 -a 0 -i 0 -k RTR 
- -t 1.000000000 -s 23 -d -1 -p WCETT -e 284 -c 2 -a 0 -i 0 -k RTR
h -t 1.000000000 -s 23 -d -1 -p WCETT -e 284 -c 2 -a 0 -i 0 -k RTR
+ -t 1.000000000 -s 24 -d -1 -p WCETT -e 284 -c 2 -a 0 -i 0 -k RTR 
- -t 1.000000000 -s 24 -d -1 -p WCETT -e 284 -c 2 -a 0 -i 0 -k RTR
h -t 1.000000000 -s 24 -d -1 -p WCETT -e 284 -c 2 -a 0 -i 0 -k RTR
+ -t 1.000000000 -s 25 -d -1 -p WCETT -e 284 -c 2 -a 0 -i 0 -k RTR 
- -t 1.000000000 -s 25 -d -1 -p WCETT -e 284 -c 2 -a 0 -i 0 -k RTR
h -t 1.000000000 -s 25 -d -1 -p WCETT -e 284 -c 2 -a 0 -i 0 -k RTR
r -t 1.002788333 -s 3 -d -1 -p WCETT -e 284 -c 2 -a 0 -i 0 -k RTR
r -t 1.002788333 -s 9 -d -1 -p WCETT -e 284 -c 2 -a 0 -i 0 -k RTR
r -t 1.002788333 -s 25 -d -1 -p WCETT -e 284 -c 2 -a 0 -i 0 -k RTR
r -t 1.002788471 -s 23 -d -1 -p WCETT -e 284 -c 2 -a 0 -i 0 -k RTR
r -t 1.002788667 -s 0 -d -1 -p WCETT -e 284 -c 2 -a 0 -i 0 -k RTR
r -t 1.002788667 -s 12 -d -1 -p WCETT -e 284 -c 2 -a 0 -i 0 -k RTR
r -t 1.002788667 -s 7 -d -1 -p WCETT -e 284 -c 2 -a 0 -i 0 -k RTR
r -t 1.002788745 -s 21 -d -1 -p WCETT -e 284 -c 2 -a 0 -i 0 -k RTR
r -t 1.002788745 -s 4 -d -1 -p WCETT -e 284 -c 2 -a 0 -i 0 -k RTR
r -t 1.002788745 -s 10 -d -1 -p WCETT -e 284 -c 2 -a 0 -i 0 -k RTR
r -t 1.005547079 -s 7 -d -1 -p WCETT -e 284 -c 2 -a 0 -i 0 -k RTR
r -t 1.005547079 -s 23 -d -1 -p WCETT -e 284 -c 2 -a 0 -i 0 -k RTR
r -t 1.005547079 -s 13 -d -1 -p WCETT -e 284 -c 2 -a 0 -i 0 -k RTR
r -t 1.005547079 -s 22 -d -1 -p WCETT -e 284 -c 2 -a 0 -i 0 -k RTR
r -t 1.005547217 -s 25 -d -1 -p WCETT -e 284 -c 2 -a 0 -i 0 -k RTR
r -t 1.005547217 -s 21 -d -1 -p WCETT -e 284 -c 2 -a 0 -i 0 -k RTR
r -t 1.005547217 -s 20 -d -1 -p WCETT -e 284 -c 2 -a 0 -i 0 -k RTR
r -t 1.005547217 -s 24 -d -1 -p WCETT -e 284 -c 2 -a 0 -i 0 -k RTR
r -t 1.005547412 -s 4 -d -1 -p WCETT -e 284 -c 2 -a 0 -i 0 -k RTR
r -t 1.005547412 -s 9 -d -1 -p WCETT -e 284 -c 2 -a 0 -i 0 -k RTR
r -t 1.005547412 -s 16 -d -1 -p WCETT -e 284 -c 2 -a 0 -i 0 -k RTR
r -t 1.005547412 -s 11 -d -1 -p WCETT -e 284 -c 2 -a 0 -i 0 -k RTR
r -t 1.005547491 -s 19 -d -1 -p WCETT -e 284 -c 2 -a 0 -i 0 -k RTR
r -t 1.005547491 -s 12 -d -1 -p WCETT -e 284 -c 2 -a 0 -i 0 -k RTR
r -t 1.005547491 -s 6 -d -1 -p WCETT -e 284 -c 2 -a 0 -i 0 -k RTR
r -t 1.005547491 -s 18 -d -1 -p WCETT -e 284 -c 2 -a 0 -i 0 -k RTR
r -t 1.005547491 -s 8 -d -1 -p WCETT -e 284 -c 2 -a 0 -i 0 -k RTR
r -t 1.005547491 -s 14 -d -1 -p WCETT -e 284 -c 2 -a 0 -i 0 -k RTR
r -t 1.008325412 -s 21 -d -1 -p WCETT -e 284 -c 2 -a 0 -i 0 -k RTR
r -t 1.008325412 -s 9 -d -1 -p WCETT -e 284 -c 2 -a 0 -i 0 -k RTR
r -t 1.008325412 -s 25 -d -1 -p WCETT -e 284 -c 2 -a 0 -i 0 -k RTR
r -t 1.008325412 -s 10 -d -1 -p WCETT -e 284 -c 2 -a 0 -i 0 -k RTR
r -t 1.008325550 -s 12 -d -1 -p WCETT -e 284 -c 2 -a 0 -i 0 -k RTR
r -t 1.008325550 -s 6 -d -1 -p WCETT -e 284 -c 2 -a 0 -i 0 -k RTR
r -t 1.008325550 -s 7 -d -1 -p WCETT -e 284 -c 2 -a 0 -i 0 -k RTR
r -t 1.008325550 -s 13 -d -1 -p WCETT -e 284 -c 2 -a 0 -i 0 -k RTR
r -t 1.008325745 -s 19 -d -1 -p WCETT -e 284 -c 2 -a 0 -i 0 -k RTR
r -t 1.008325745 -s 22 -d -1 -p WCETT -e 284 -c 2 -a 0 -i 0 -k RTR
r -t 1.008325824 -s 15 -d -1 -p WCETT -e 284 -c 2 -a 0 -i 0 -k RTR
r -t 1.008325824 -s 3 -d -1 -p WCETT -e 284 -c 2 -a 0 -i 0 -k RTR
r -t 1.008325824 -s 4 -d -1 -p WCETT -e 284 -c 2 -a 0 -i 0 -k RTR
r -t 1.008325824 -s 16 -d -1 -p WCETT -e 284 -c 2 -a 0 -i 0 -k RTR
r -t 1.008325824 -s 20 -d -1 -p WCETT -e 284 -c 2 -a 0 -i 0 -k RTR
r -t 1.008325824 -s 24 -d -1 -p WCETT -e 284 -c 2 -a 0 -i 0 -k RTR
r -t 1.011084157 -s 1 -d -1 -p WCETT -e 284 -c 2 -a 0 -i 0 -k RTR
r -t 1.011084157 -s 7 -d -1 -p WCETT -e 284 -c 2 -a 0 -i 0 -k RTR
r -t 1.011084295 -s 25 -d -1 -p WCETT -e 284 -c 2 -a 0 -i 0 -k RTR
r -t 1.011084295 -s 24 -d -1 -p WCETT -e 284 -c 2 -a 0 -i 0 -k RTR
r -t 1.011084491 -s 3 -d -1 -p WCETT -e 284 -c 2 -a 0 -i 0 -k RTR
r -t 1.011084491 -s 10 -d -1 -p WCETT -e 284 -c 2 -a 0 -i 0 -k RTR
r -t 1.011084491 -s 5 -d -1 -p WCETT -e 284 -c 2 -a 0 -i 0 -k RTR
r -t 1.011084569 -s 23 -d -1 -p WCETT -e 284 -c 2 -a 0 -i 0 -k RTR
r -t 1.011084569 -s 6 -d -1 -p WCETT -e 284 -c 2 -a 0 -i 0 -k RTR
r -t 1.011084569 -s 0 -d -1 -p WCETT -e 284 -c 2 -a 0 -i 0 -k RTR
r -t 1.011084569 -s 22 -d -1 -p WCETT -e 284 -c 2 -a 0 -i 0 -k RTR
r -t 1.011084569 -s 2 -d -1 -p WCETT -e 284 -c 2 -a 0 -i 0 -k RTR
r -t 1.011084569 -s 8 -d -1 -p WCETT -e 284 -c 2 -a 0 -i 0 -k RTR
r -t 1.013962903 -s 20 -d -1 -p WCETT -e 284 -c 2 -a 0 -i 0 -k RTR
r -t 1.013962903 -s 10 -d -1 -p WCETT -e 284 -c 2 -a 0 -i 0 -k RTR
r -t 1.013962903 -s 24 -d -1 -p WCETT -e 284 -c 2 -a 0 -i 0 -k RTR
r -t 1.013962903 -s 11 -d -1 -p WCETT -e 284 -c 2 -a 0 -i 0 -k RTR
r -t 1.013963041 -s 13 -d -1 -p WCETT -e 284 -c 2 -a 0 -i 0 -k RTR
r -t 1.013963041 -s 7 -d -1 -p WCETT -e 284 -c 2 -a 0 -i 0 -k RTR
r -t 1.013963041 -s 8 -d -1 -p WCETT -e 284 -c 2 -a 0 -i 0 -k RTR
r -t 1.013963041 -s 14 -d -1 -p WCETT -e 284 -c 2 -a 0 -i 0 -k RTR
r -t 1.013963236 -s 18 -d -1 -p WCETT -e 284 -c 2 -a 0 -i 0 -k RTR