s 0.000000000 _0_ RTR  --- 0 WCETT 284 [0 0 0 0] ------- [0:255 -1:255 1 0] [0x1 1 [0 2] 4.000000 ] (HELLO)
s 0.000000000 _1_ RTR  --- 0 WCETT 284 [0 0 0 0] ------- [1:255 -1:255 1 0] [0x1 1 [1 2] 4.000000 ] (HELLO)
s 0.000000000 _2_ RTR  --- 0 WCETT 284 [0 0 0 0] ------- [2:255 -1:255 1 0] [0x1 1 [2 2] 4.000000 ] (HELLO)
s 0.000000000 _3_ RTR  --- 0 WCETT 284 [0 0 0 0] ------- [3:255 -1:255 1 0] [0x1 1 [3 2] 4.000000 ] (HELLO)
s 0.000000000 _4_ RTR  --- 0 WCETT 284 [0 0 0 0] ------- [4:255 -1:255 1 0] [0x1 1 [4 2] 4.000000 ] (HELLO)
s 0.000000000 _5_ RTR  --- 0 WCETT 284 [0 0 0 0] ------- [5:255 -1:255 1 0] [0x1 1 [5 2] 4.000000 ] (HELLO)
s 0.000000000 _6_ RTR  --- 0 WCETT 284 [0 0 0 0] ------- [6:255 -1:255 1 0] [0x1 1 [6 2] 4.000000 ] (HELLO)
s 0.000000000 _7_ RTR  --- 0 WCETT 284 [0 0 0 0] ------- [7:255 -1:255 1 0] [0x1 1 [7 2] 4.000000 ] (HELLO)
s 0.000000000 _8_ RTR  --- 0 WCETT 284 [0 0 0 0] ------- [8:255 -1:255 1 0] [0x1 1 [8 2] 4.000000 ] (HELLO)
s 0.000000000 _9_ RTR  --- 0 WCETT 284 [0 0 0 0] ------- [9:255 -1:255 1 0] [0x1 1 [9 2] 4.000000 ] (HELLO)
s 0.000000000 _10_ RTR  --- 0 WCETT 284 [0 0 0 0] ------- [10:255 -1:255 1 0] [0x1 1 [10 2] 4.000000 ] (HELLO)
s 0.000000000 _11_ RTR  --- 0 WCETT 284 [0 0 0 0] ------- [11:255 -1:255 1 0] [0x1 1 [11 2] 4.000000 ] (HELLO)
s 0.000000000 _12_ RTR  --- 0 WCETT 284 [0 0 0 0] ------- [12:255 -1:255 1 0] [0x1 1 [12 2] 4.000000 ] (HELLO)
s 0.000000000 _13_ RTR  --- 0 WCETT 284 [0 0 0 0] ------- [13:255 -1:255 1 0] [0x1 1 [13 2] 4.000000 ] (HELLO)
s 0.000000000 _14_ RTR  --- 0 WCETT 284 [0 0 0 0] ------- [14:255 -1:255 1 0] [0x1 1 [14 2] 4.000000 ] (HELLO)
s 0.000000000 _15_ RTR  --- 0 WCETT 284 [0 0 0 0] ------- [15:255 -1:255 1 0] [0x1 1 [15 2] 4.000000 ] (HELLO)
s 0.000000000 _16_ RTR  --- 0 WCETT 284 [0 0 0 0] ------- [16:255 -1:255 1 0] [0x1 1 [16 2] 4.000000 ] (HELLO)
s 0.000000000 _17_ RTR  --- 0 WCETT 284 [0 0 0 0] ------- [17:255 -1:255 1 0] [0x1 1 [17 2] 4.000000 ] (HELLO)
r 0.002788333 _5_ RTR  --- 0 WCETT 284 [0 ffffffff 2 800] ------- [2:255 -1:255 1 0] [0x1 1 [2 2] 4.000000 ] (HELLO)
r 0.002788667 _1_ RTR  --- 0 WCETT 284 [0 ffffffff 2 800] ------- [2:255 -1:255 1 0] [0x1 1 [2 2] 4.000000 ] (HELLO)
r 0.002788667 _8_ RTR  --- 0 WCETT 284 [0 ffffffff 2 800] ------- [2:255 -1:255 1 0] [0x1 1 [2 2] 4.000000 ] (HELLO)
r 0.003148333 _15_ RTR  --- 0 WCETT 284 [0 ffffffff c 800] ------- [12:255 -1:255 1 0] [0x1 1 [12 2] 4.000000 ] (HELLO)
r 0.006006667 _12_ RTR  --- 0 WCETT 284 [0 ffffffff f 800] ------- [15:255 -1:255 1 0] [0x1 1 [15 2] 4.000000 ] (HELLO)
r 0.006007000 _9_ RTR  --- 0 WCETT 284 [0 ffffffff f 800] ------- [15:255 -1:255 1 0] [0x1 1 [15 2] 4.000000 ] (HELLO)
r 0.006007000 _16_ RTR  --- 0 WCETT 284 [0 ffffffff f 800] ------- [15:255 -1:255 1 0] [0x1 1 [15 2] 4.000000 ] (HELLO)
r 0.006492000 _2_ RTR  --- 0 WCETT 284 [0 ffffffff 5 800] ------- [5:255 -1:255 1 0] [0x1 1 [5 2] 4.000000 ] (HELLO)
r 0.009635491 _6_ RTR  --- 0 WCETT 284 [0 ffffffff 9 800] ------- [9:255 -1:255 1 0] [0x1 1 [9 2] 4.000000 ] (HELLO)
r 0.009635491 _12_ RTR  --- 0 WCETT 284 [0 ffffffff 9 800] ------- [9:255 -1:255 1 0] [0x1 1 [9 2] 4.000000 ] (HELLO)
r 0.009635824 _3_ RTR  --- 0 WCETT 284 [0 ffffffff 9 800] ------- [9:255 -1:255 1 0] [0x1 1 [9 2] 4.000000 ] (HELLO)
r 0.009635824 _15_ RTR  --- 0 WCETT 284 [0 ffffffff 9 800] ------- [9:255 -1:255 1 0] [0x1 1 [9 2] 4.000000 ] (HELLO)
r 0.009635824 _10_ RTR  --- 0 WCETT 284 [0 ffffffff 9 800] ------- [9:255 -1:255 1 0] [0x1 1 [9 2] 4.000000 ] (HELLO)
r 0.009635903 _7_ RTR  --- 0 WCETT 284 [0 ffffffff 9 800] ------- [9:255 -1:255 1 0] [0x1 1 [9 2] 4.000000 ] (HELLO)
r 0.009635903 _13_ RTR  --- 0 WCETT 284 [0 ffffffff 9 800] ------- [9:255 -1:255 1 0] [0x1 1 [9 2] 4.000000 ] (HELLO)
r 0.012494157 _0_ RTR  --- 0 WCETT 284 [0 ffffffff 3 800] ------- [3:255 -1:255 1 0] [0x1 1 [3 2] 4.000000 ] (HELLO)
r 0.012494157 _6_ RTR  --- 0 WCETT 284 [0 ffffffff 3 800] ------- [3:255 -1:255 1 0] [0x1 1 [3 2] 4.000000 ] (HELLO)
r 0.012494491 _9_ RTR  --- 0 WCETT 284 [0 ffffffff 3 800] ------- [3:255 -1:255 1 0] [0x1 1 [3 2] 4.000000 ] (HELLO)
r 0.012494491 _4_ RTR  --- 0 WCETT 284 [0 ffffffff 3 800] ------- [3:255 -1:255 1 0] [0x1 1 [3 2] 4.000000 ] (HELLO)
r 0.012494569 _1_ RTR  --- 0 WCETT 284 [0 ffffffff 3 800] ------- [3:255 -1:255 1 0] [0x1 1 [3 2] 4.000000 ] (HELLO)
r 0.015492491 _3_ RTR  --- 0 WCETT 284 [0 ffffffff 0 800] ------- [0:255 -1:255 1 0] [0x1 1 [0 2] 4.000000 ] (HELLO)
r 0.015492824 _6_ RTR  --- 0 WCETT 284 [0 ffffffff 0 800] ------- [0:255 -1:255 1 0] [0x1 1 [0 2] 4.000000 ] (HELLO)
r 0.015492824 _1_ RTR  --- 0 WCETT 284 [0 ffffffff 0 800] ------- [0:255 -1:255 1 0] [0x1 1 [0 2] 4.000000 ] (HELLO)
r 0.016241315 _11_ RTR  --- 0 WCETT 284 [0 ffffffff e 800] ------- [14:255 -1:255 1 0] [0x1 1 [14 2] 4.000000 ] (HELLO)
r 0.016241315 _17_ RTR  --- 0 WCETT 284 [0 ffffffff e 800] ------- [14:255 -1:255 1 0] [0x1 1 [14 2] 4.000000 ] (HELLO)
r 0.016241648 _13_ RTR  --- 0 WCETT 284 [0 ffffffff e 800] ------- [14:255 -1:255 1 0] [0x1 1 [14 2] 4.000000 ] (HELLO)
r 0.016241727 _16_ RTR  --- 0 WCETT 284 [0 ffffffff e 800] ------- [14:255 -1:255 1 0] [0x1 1 [14 2] 4.000000 ] (HELLO)
r 0.019059981 _10_ RTR  --- 0 WCETT 284 [0 ffffffff d 800] ------- [13:255 -1:255 1 0] [0x1 1 [13 2] 4.000000 ] (HELLO)
r 0.019059981 _16_ RTR  --- 0 WCETT 284 [0 ffffffff d 800] ------- [13:255 -1:255 1 0] [0x1 1 [13 2] 4.000000 ] (HELLO)
r 0.019060315 _7_ RTR  --- 0 WCETT 284 [0 ffffffff d 800] ------- [13:255 -1:255 1 0] [0x1 1 [13 2] 4.000000 ] (HELLO)
r 0.019060315 _12_ RTR  --- 0 WCETT 284 [0 ffffffff d 800] ------- [13:255 -1:255 1 0] [0x1 1 [13 2] 4.000000 ] (HELLO)
r 0.019060315 _14_ RTR  --- 0 WCETT 284 [0 ffffffff d 800] ------- [13:255 -1:255 1 0] [0x1 1 [13 2] 4.000000 ] (HELLO)
r 0.019060393 _15_ RTR  --- 0 WCETT 284 [0 ffffffff d 800] ------- [13:255 -1:255 1 0] [0x1 1 [13 2] 4.000000 ] (HELLO)
r 0.019060393 _9_ RTR  --- 0 WCETT 284 [0 ffffffff d 800] ------- [13:255 -1:255 1 0] [0x1 1 [13 2] 4.000000 ] (HELLO)
r 0.019060393 _11_ RTR  --- 0 WCETT 284 [0 ffffffff d 800] ------- [13:255 -1:255 1 0] [0x1 1 [13 2] 4.000000 ] (HELLO)
r 0.019060393 _17_ RTR  --- 0 WCETT 284 [0 ffffffff d 800] ------- [13:255 -1:255 1 0] [0x1 1 [13 2] 4.000000 ] (HELLO)
r 0.021838727 _8_ RTR  --- 0 WCETT 284 [0 ffffffff b 800] ------- [11:255 -1:255 1 0] [0x1 1 [11 2] 4.000000 ] (HELLO)
r 0.021838727 _14_ RTR  --- 0 WCETT 284 [0 ffffffff b 800] ------- [11:255 -1:255 1 0] [0x1 1 [11 2] 4.000000 ] (HELLO)
r 0.021839060 _5_ RTR  --- 0 WCETT 284 [0 ffffffff b 800] ------- [11:255 -1:255 1 0] [0x1 1 [11 2] 4.000000 ] (HELLO)
r 0.021839060 _10_ RTR  --- 0 WCETT 284 [0 ffffffff b 800] ------- [11:255 -1:255 1 0] [0x1 1 [11 2] 4.000000 ] (HELLO)
r 0.021839060 _17_ RTR  --- 0 WCETT 284 [0 ffffffff b 800] ------- [11:255 -1:255 1 0] [0x1 1 [11 2] 4.000000 ] (HELLO)
r 0.021839139 _13_ RTR  --- 0 WCETT 284 [0 ffffffff b 800] ------- [11:255 -1:255 1 0] [0x1 1 [11 2] 4.000000 ] (HELLO)
r 0.021839139 _7_ RTR  --- 0 WCETT 284 [0 ffffffff b 800] ------- [11:255 -1:255 1 0] [0x1 1 [11 2] 4.000000 ] (HELLO)
r 0.024637472 _4_ RTR  --- 0 WCETT 284 [0 ffffffff 7 800] ------- [7:255 -1:255 1 0] [0x1 1 [7 2] 4.000000 ] (HELLO)
r 0.024637472 _10_ RTR  --- 0 WCETT 284 [0 ffffffff 7 800] ------- [7:255 -1:255 1 0] [0x1 1 [7 2] 4.000000 ] (HELLO)
r 0.024637805 _1_ RTR  --- 0 WCETT 284 [0 ffffffff 7 800] ------- [7:255 -1:255 1 0] [0x1 1 [7 2] 4.000000 ] (HELLO)
r 0.024637805 _6_ RTR  --- 0 WCETT 284 [0 ffffffff 7 800] ------- [7:255 -1:255 1 0] [0x1 1 [7 2] 4.000000 ] (HELLO)
r 0.024637805 _13_ RTR  --- 0 WCETT 284 [0 ffffffff 7 800] ------- [7:255 -1:255 1 0] [0x1 1 [7 2] 4.000000 ] (HELLO)
r 0.024637805 _8_ RTR  --- 0 WCETT 284 [0 ffffffff 7 800] ------- [7:255 -1:255 1 0] [0x1 1 [7 2] 4.000000 ] (HELLO)
r 0.024637884 _9_ RTR  --- 0 WCETT 284 [0 ffffffff 7 800] ------- [7:255 -1:255 1 0] [0x1 1 [7 2] 4.000000 ] (HELLO)
r 0.024637884 _3_ RTR  --- 0 WCETT 284 [0 ffffffff 7 800] ------- [7:255 -1:255 1 0] [0x1 1 [7 2] 4.000000 ] (HELLO)
r 0.024637884 _5_ RTR  --- 0 WCETT 284 [0 ffffffff 7 800] ------- [7:255 -1:255 1 0] [0x1 1 [7 2] 4.000000 ] (HELLO)
r 0.024637884 _11_ RTR  --- 0 WCETT 284 [0 ffffffff 7 800] ------- [7:255 -1:255 1 0] [0x1 1 [7 2] 4.000000 ] (HELLO)
r 0.027516139 _5_ RTR  --- 0 WCETT 284 [0 ffffffff 8 800] ------- [8:255 -1:255 1 0] [0x1 1 [8 2] 4.000000 ] (HELLO)
r 0.027516139 _11_ RTR  --- 0 WCETT 284 [0 ffffffff 8 800] ------- [8:255 -1:255 1 0] [0x1 1 [8 2] 4.000000 ] (HELLO)
r 0.027516472 _2_ RTR  --- 0 WCETT 284 [0 ffffffff 8 800] ------- [8:255 -1:255 1 0] [0x1 1 [8 2] 4.000000 ] (HELLO)
r 0.027516472 _7_ RTR  --- 0 WCETT 284 [0 ffffffff 8 800] ------- [8:255 -1:255 1 0] [0x1 1 [8 2] 4.000000 ] (HELLO)
r 0.027516472 _14_ RTR  --- 0 WCETT 284 [0 ffffffff 8 800] ------- [8:255 -1:255 1 0] [0x1 1 [8 2] 4.000000 ] (HELLO)
r 0.027516551 _10_ RTR  --- 0 WCETT 284 [0 ffffffff 8 800] ------- [8:255 -1:255 1 0] [0x1 1 [8 2] 4.000000 ] (HELLO)
r 0.027516551 _4_ RTR  --- 0 WCETT 284 [0 ffffffff 8 800] ------- [8:255 -1:255 1 0] [0x1 1 [8 2] 4.000000 ] (HELLO)
r 0.030274884 _1_ RTR  --- 0 WCETT 284 [0 ffffffff 4 800] ------- [4:255 -1:255 1 0] [0x1 1 [4 2] 4.000000 ] (HELLO)
r 0.030274884 _7_ RTR  --- 0 WCETT 284 [0 ffffffff 4 800] ------- [4:255 -1:255 1 0] [0x1 1 [4 2] 4.000000 ] (HELLO)
r 0.030275217 _3_ RTR  --- 0 WCETT 284 [0 ffffffff 4 800] ------- [4:255 -1:255 1 0] [0x1 1 [4 2] 4.000000 ] (HELLO)
r 0.030275217 _10_ RTR  --- 0 WCETT 284 [0 ffffffff 4 800] ------- [4:255 -1:255 1 0] [0x1 1 [4 2] 4.000000 ] (HELLO)
r 0.030275217 _5_ RTR  --- 0 WCETT 284 [0 ffffffff 4 800] ------- [4:255 -1:255 1 0] [0x1 1 [4 2] 4.000000 ] (HELLO)
r 0.030275296 _6_ RTR  --- 0 WCETT 284 [0 ffffffff 4 800] ------- [4:255 -1:255 1 0] [0x1 1 [4 2] 4.000000 ] (HELLO)
r 0.030275296 _0_ RTR  --- 0 WCETT 284 [0 ffffffff 4 800] ------- [4:255 -1:255 1 0] [0x1 1 [4 2] 4.000000 ] (HELLO)
r 0.030275296 _2_ RTR  --- 0 WCETT 284 [0 ffffffff 4 800] ------- [4:255 -1:255 1 0] [0x1 1 [4 2] 4.000000 ] (HELLO)
r 0.030275296 _8_ RTR  --- 0 WCETT 284 [0 ffffffff 4 800] ------- [4:255 -1:255 1 0] [0x1 1 [4 2] 4.000000 ] (HELLO)
r 0.033073630 _3_ RTR  --- 0 WCETT 284 [0 ffffffff 6 800] ------- [6:255 -1:255 1 0] [0x1 1 [6 2] 4.000000 ] (HELLO)
r 0.033073630 _9_ RTR  --- 0 WCETT 284 [0 ffffffff 6 800] ------- [6:255 -1:255 1 0] [0x1 1 [6 2] 4.000000 ] (HELLO)
r 0.033073963 _0_ RTR  --- 0 WCETT 284 [0 ffffffff 6 800] ------- [6:255 -1:255 1 0] [0x1 1 [6 2] 4.000000 ] (HELLO)
r 0.033073963 _12_ RTR  --- 0 WCETT 284 [0 ffffffff 6 800] ------- [6:255 -1:255 1 0] [0x1 1 [6 2] 4.000000 ] (HELLO)
r 0.033073963 _7_ RTR  --- 0 WCETT 284 [0 ffffffff 6 800] ------- [6:255 -1:255 1 0] [0x1 1 [6 2] 4.000000 ] (HELLO)
r 0.033074042 _4_ RTR  --- 0 WCETT 284 [0 ffffffff 6 800] ------- [6:255 -1:255 1 0] [0x1 1 [6 2] 4.000000 ] (HELLO)
r 0.033074042 _10_ RTR  --- 0 WCETT 284 [0 ffffffff 6 800] ------- [6:255 -1:255 1 0] [0x1 1 [6 2] 4.000000 ] (HELLO)
r 0.035872375 _7_ RTR  --- 0 WCETT 284 [0 ffffffff a 800] ------- [10:255 -1:255 1 0] [0x1 1 [10 2] 4.000000 ] (HELLO)
r 0.035872375 _13_ RTR  --- 0 WCETT 284 [0 ffffffff a 800] ------- [10:255 -1:255 1 0] [0x1 1 [10 2] 4.000000 ] (HELLO)
r 0.035872708 _4_ RTR  --- 0 WCETT 284 [0 ffffffff a 800] ------- [10:255 -1:255 1 0] [0x1 1 [10 2] 4.000000 ] (HELLO)
r 0.035872708 _9_ RTR  --- 0 WCETT 284 [0 ffffffff a 800] ------- [10:255 -1:255 1 0] [0x1 1 [10 2] 4.000000 ] (HELLO)
r 0.035872708 _16_ RTR  --- 0 WCETT 284 [0 ffffffff a 800] ------- [10:255 -1:255 1 0] [0x1 1 [10 2] 4.000000 ] (HELLO)
r 0.035872708 _11_ RTR  --- 0 WCETT 284 [0 ffffffff a 800] ------- [10:255 -1:255 1 0] [0x1 1 [10 2] 4.000000 ] (HELLO)
r 0.035872787 _12_ RTR  --- 0 WCETT 284 [0 ffffffff a 800] ------- [10:255 -1:255 1 0] [0x1 1 [10 2] 4.000000 ] (HELLO)
r 0.035872787 _6_ RTR  --- 0 WCETT 284 [0 ffffffff a 800] ------- [10:255 -1:255 1 0] [0x1 1 [10 2] 4.000000 ] (HELLO)
r 0.035872787 _8_ RTR  --- 0 WCETT 284 [0 ffffffff a 800] ------- [10:255 -1:255 1 0] [0x1 1 [10 2] 4.000000 ] (HELLO)
r 0.035872787 _14_ RTR  --- 0 WCETT 284 [0 ffffffff a 800] ------- [10:255 -1:255 1 0] [0x1 1 [10 2] 4.000000 ] (HELLO)
r 0.038791042 _13_ RTR  --- 0 WCETT 284 [0 ffffffff 10 800] ------- [16:255 -1:255 1 0] [0x1 1 [16 2] 4.000000 ] (HELLO)
r 0.038791375 _10_ RTR  --- 0 WCETT 284 [0 ffffffff 10 800] ------- [16:255 -1:255 1 0] [0x1 1 [16 2] 4.000000 ] (HELLO)
r 0.038791375 _15_ RTR  --- 0 WCETT 284 [0 ffffffff 10 800] ------- [16:255 -1:255 1 0] [0x1 1 [16 2] 4.000000 ] (HELLO)
r 0.038791375 _17_ RTR  --- 0 WCETT 284 [0 ffffffff 10 800] ------- [16:255 -1:255 1 0] [0x1 1 [16 2] 4.000000 ] (HELLO)
r 0.038791454 _12_ RTR  --- 0 WCETT 284 [0 ffffffff 10 800] ------- [16:255 -1:255 1 0] [0x1 1 [16 2] 4.000000 ] (HELLO)
r 0.038791454 _14_ RTR  --- 0 WCETT 284 [0 ffffffff 10 800] ------- [16:255 -1:255 1 0] [0x1 1 [16 2] 4.000000 ] (HELLO)
r 0.041974708 _4_ RTR  --- 0 WCETT 284 [0 ffffffff 1 800] ------- [1:255 -1:255 1 0] [0x1 1 [1 2] 4.000000 ] (HELLO)
r 0.041975042 _0_ RTR  --- 0 WCETT 284 [0 ffffffff 1 800] ------- [1:255 -1:255 1 0] [0x1 1 [1 2] 4.000000 ] (HELLO)
r 0.041975042 _7_ RTR  --- 0 WCETT 284 [0 ffffffff 1 800] ------- [1:255 -1:255 1 0] [0x1 1 [1 2] 4.000000 ] (HELLO)
r 0.041975042 _2_ RTR  --- 0 WCETT 284 [0 ffffffff 1 800] ------- [1:255 -1:255 1 0] [0x1 1 [1 2] 4.000000 ] (HELLO)
r 0.041975120 _3_ RTR  --- 0 WCETT 284 [0 ffffffff 1 800] ------- [1:255 -1:255 1 0] [0x1 1 [1 2] 4.000000 ] (HELLO)
r 0.041975120 _5_ RTR  --- 0 WCETT 284 [0 ffffffff 1 800] ------- [1:255 -1:255 1 0] [0x1 1 [1 2] 4.000000 ] (HELLO)
s 1.000000000 _0_ RTR  --- 0 WCETT 284 [0 0 0 0] ------- [0:255 -1:255 1 0] [0x1 1 [0 10] 4.000000 ] (HELLO)
s 1.000000000 _1_ RTR  --- 0 WCETT 284 [0 0 0 0] ------- [1:255 -1:255 1 0] [0x1 1 [1 12] 4.000000 ] (HELLO)
s 1.000000000 _2_ RTR  --- 0 WCETT 284 [0 0 0 0] ------- [2:255 -1:255 1 0] [0x1 1 [2 10] 4.000000 ] (HELLO)
s 1.000000000 _3_ RTR  --- 0 WCETT 284 [0 0 0 0] ------- [3:255 -1:255 1 0] [0x1 1 [3 14] 4.000000 ] (HELLO)
s 1.000000000 _4_ RTR  --- 0 WCETT 284 [0 0 0 0] ------- [4:255 -1:255 1 0] [0x1 1 [4 14] 4.000000 ] (HELLO)
s 1.000000000 _5_ RTR  --- 0 WCETT 284 [0 0 0 0] ------- [5:255 -1:255 1 0] [0x1 1 [5 14] 4.000000 ] (HELLO)
s 1.000000000 _6_ RTR  --- 0 WCETT 284 [0 0 0 0] ------- [6:255 -1:255 1 0] [0x1 1 [6 14] 4.000000 ] (HELLO)
s 1.000000000 _7_ RTR  --- 0 WCETT 284 [0 0 0 0] ------- [7:255 -1:255 1 0] [0x1 1 [7 18] 4.000000 ] (HELLO)
s 1.000000000 _8_ RTR  --- 0 WCETT 284 [0 0 0 0] ------- [8:255 -1:255 1 0] [0x1 1 [8 12] 4.000000 ] (HELLO)
s 1.000000000 _9_ RTR  --- 0 WCETT 284 [0 0 0 0] ------- [9:255 -1:255 1 0] [0x1 1 [9 14] 4.000000 ] (HELLO)
s 1.000000000 _10_ RTR  --- 0 WCETT 284 [0 0 0 0] ------- [10:255 -1:255 1 0] [0x1 1 [10 18] 4.000000 ] (HELLO)
s 1.000000000 _11_ RTR  --- 0 WCETT 284 [0 0 0 0] ------- [11:255 -1:255 1 0] [0x1 1 [11 12] 4.000000 ] (HELLO)
s 1.000000000 _12_ RTR  --- 0 WCETT 284 [0 0 0 0] ------- [12:255 -1:255 1 0] [0x1 1 [12 14] 4.000000 ] (HELLO)
s 1.000000000 _13_ RTR  --- 0 WCETT 284 [0 0 0 0] ------- [13:255 -1:255 1 0] [0x1 1 [13 14] 4.000000 ] (HELLO)
s 1.000000000 _14_ RTR  --- 0 WCETT 284 [0 0 0 0] ------- [14:255 -1:255 1 0] [0x1 1 [14 12] 4.000000 ] (HELLO)
s 1.000000000 _15_ RTR  --- 0 WCETT 284 [0 0 0 0] ------- [15:255 -1:255 1 0] [0x1 1 [15 10] 4.000000 ] (HELLO)
s 1.000000000 _16_ RTR  --- 0 WCETT 284 [0 0 0 0] ------- [16:255 -1:255 1 0] [0x1 1 [16 10] 4.000000 ] (HELLO)
s 1.000000000 _17_ RTR  --- 0 WCETT 284 [0 0 0 0] ------- [17:255 -1:255 1 0] [0x1 1 [17 10] 4.000000 ] (HELLO)
r 1.002788333 _9_ RTR  --- 0 WCETT 284 [0 ffffffff c 800] ------- [12:255 -1:255 1 0] [0x1 1 [12 14] 4.000000 ] (HELLO)
r 1.002788333 _15_ RTR  --- 0 WCETT 284 [0 ffffffff c 800] ------- [12:255 -1:255 1 0] [0x1 1 [12 14] 4.000000 ] (HELLO)
r 1.002788667 _6_ RTR  --- 0 WCETT 284 [0 ffffffff c 800] ------- [12:255 -1:255 1 0] [0x1 1 [12 14] 4.000000 ] (HELLO)
r 1.002788667 _13_ RTR  --- 0 WCETT 284 [0 ffffffff c 800] ------- [12:255 -1:255 1 0] [0x1 1 [12 14] 4.000000 ] (HELLO)
r 1.002788745 _16_ RTR  --- 0 WCETT 284 [0 ffffffff c 800] ------- [12:255 -1:255 1 0] [0x1 1 [12 14] 4.000000 ] (HELLO)
r 1.005686667 _12_ RTR  --- 0 WCETT 284 [0 ffffffff f 800] ------- [15:255 -1:255 1 0] [0x1 1 [15 10] 4.000000 ] (HELLO)
r 1.005687000 _9_ RTR  --- 0 WCETT 284 [0 ffffffff f 800] ------- [15:255 -1:255 1 0] [0x1 1 [15 10] 4.000000 ] (HELLO)
r 1.005687000 _16_ RTR  --- 0 WCETT 284 [0 ffffffff f 800] ------- [15:255 -1:255 1 0] [0x1 1 [15 10] 4.000000 ] (HELLO)
r 1.006210667 _2_ RTR  --- 0 WCETT 284 [0 ffffffff 5 800] ------- [5:255 -1:255 1 0] [0x1 1 [5 14] 4.000000 ] (HELLO)
r 1.009373333 _1_ RTR  --- 0 WCETT 284 [0 ffffffff 4 800] ------- [4:255 -1:255 1 0] [0x1 1 [4 14] 4.000000 ] (HELLO)
r 1.009373333 _7_ RTR  --- 0 WCETT 284 [0 ffffffff 4 800] ------- [4:255 -1:255 1 0] [0x1 1 [4 14] 4.000000 ] (HELLO)
r 1.009373667 _3_ RTR  --- 0 WCETT 284 [0 ffffffff 4 800] ------- [4:255 -1:255 1 0] [0x1 1 [4 14] 4.000000 ] (HELLO)
r 1.009373667 _10_ RTR  --- 0 WCETT 284 [0 ffffffff 4 800] ------- [4:255 -1:255 1 0] [0x1 1 [4 14] 4.000000 ] (HELLO)
r 1.009373667 _5_ RTR  --- 0 WCETT 284 [0 ffffffff 4 800] ------- [4:255 -1:255 1 0] [0x1 1 [4 14] 4.000000 ] (HELLO)
r 1.009373745 _6_ RTR  --- 0 WCETT 284 [0 ffffffff 4 800] ------- [4:255 -1:255 1 0] [0x1 1 [4 14] 4.000000 ] (HELLO)
r 1.009373745 _0_ RTR  --- 0 WCETT 284 [0 ffffffff 4 800] ------- [4:255 -1:255 1 0] [0x1 1 [4 14] 4.000000 ] (HELLO)
r 1.009373745 _2_ RTR  --- 0 WCETT 284 [0 ffffffff 4 800] ------- [4:255 -1:255 1 0] [0x1 1 [4 14] 4.000000 ] (HELLO)
r 1.009373745 _8_ RTR  --- 0 WCETT 284 [0 ffffffff 4 800] ------- [4:255 -1:255 1 0] [0x1 1 [4 14] 4.000000 ] (HELLO)
r 1.012271667 _4_ RTR  --- 0 WCETT 284 [0 ffffffff 1 800] ------- [1:255 -1:255 1 0] [0x1 1 [1 12] 4.000000 ] (HELLO)
r 1.012272000 _0_ RTR  --- 0 WCETT 284 [0 ffffffff 1 800] ------- [1:255 -1:255 1 0] [0x1 1 [1 12] 4.000000 ] (HELLO)
r 1.012272000 _7_ RTR  --- 0 WCETT 284 [0 ffffffff 1 800] ------- [1:255 -1:255 1 0] [0x1 1 [1 12] 4.000000 ] (HELLO)
r 1.012272000 _2_ RTR  --- 0 WCETT 284 [0 ffffffff 1 800] ------- [1:255 -1:255 1 0] [0x1 1 [1 12] 4.000000 ] (HELLO)
r 1.012272079 _3_ RTR  --- 0 WCETT 284 [0 ffffffff 1 800] ------- [1:255 -1:255 1 0] [0x1 1 [1 12] 4.000000 ] (HELLO)
r 1.012272079 _5_ RTR  --- 0 WCETT 284 [0 ffffffff 1 800] ------- [1:255 -1:255 1 0] [0x1 1 [1 12] 4.000000 ] (HELLO)
r 1.015290333 _4_ RTR  --- 0 WCETT 284 [0 ffffffff 7 800] ------- [7:255 -1:255 1 0] [0x1 1 [7 18] 4.000000 ] (HELLO)
r 1.015290333 _10_ RTR  --- 0 WCETT 284 [0 ffffffff 7 800] ------- [7:255 -1:255 1 0] [0x1 1 [7 18] 4.000000 ] (HELLO)
r 1.015290667 _1_ RTR  --- 0 WCETT 284 [0 ffffffff 7 800] ------- [7:255 -1:255 1 0] [0x1 1 [7 18] 4.000000 ] (HELLO)
r 1.015290667 _6_ RTR  --- 0 WCETT 284 [0 ffffffff 7 800] ------- [7:255 -1:255 1 0] [0x1 1 [7 18] 4.000000 ] (HELLO)
r 1.015290667 _13_ RTR  --- 0 WCETT 284 [0 ffffffff 7 800] ------- [7:255 -1:255 1 0] [0x1 1 [7 18] 4.000000 ] (HELLO)
r 1.015290667 _8_ RTR  --- 0 WCETT 284 [0 ffffffff 7 800] ------- [7:255 -1:255 1 0] [0x1 1 [7 18] 4.000000 ] (HELLO)
r 1.015290745 _9_ RTR  --- 0 WCETT 284 [0 ffffffff 7 800] ------- [7:255 -1:255 1 0] [0x1 1 [7 18] 4.000000 ] (HELLO)
r 1.015290745 _3_ RTR  --- 0 WCETT 284 [0 ffffffff 7 800] ------- [7:255 -1:255 1 0] [0x1 1 [7 18] 4.000000 ] (HELLO)
r 1.015290745 _5_ RTR  --- 0 WCETT 284 [0 ffffffff 7 800] ------- [7:255 -1:255 1 0] [0x1 1 [7 18] 4.000000 ] (HELLO)
r 1.015290745 _11_ RTR  --- 0 WCETT 284 [0 ffffffff 7 800] ------- [7:255 -1:255 1 0] [0x1 1 [7 18] 4.000000 ] (HELLO)
r 1.018088667 _7_ RTR  --- 0 WCETT 284 [0 ffffffff a 800] ------- [10:255 -1:255 1 0] [0x1 1 [10 18] 4.000000 ] (HELLO)
r 1.018088667 _13_ RTR  --- 0 WCETT 284 [0 ffffffff a 800] ------- [10:255 -1:255 1 0] [0x1 1 [10 18] 4.000000 ] (HELLO)
r 1.018089000 _9_ RTR  --- 0 WCETT 284 [0 ffffffff a 800] ------- [10:255 -1:255 1 0] [0x1 1 [10 18] 4.000000 ] (HELLO)
r 1.018089000 _16_ RTR  --- 0 WCETT 284 [0 ffffffff a 800] ------- [10:255 -1:255 1 0] [0x1 1 [10 18] 4.000000 ] (HELLO)
r 1.018089000 _5_ RTR  --- 0 WCETT 284 [0 ffffffff 8 800] ------- [8:255 -1:255 1 0] [0x1 1 [8 12] 4.000000 ] (HELLO)
r 1.018089079 _12_ RTR  --- 0 WCETT 284 [0 ffffffff a 800] ------- [10:255 -1:255 1 0] [0x1 1 [10 18] 4.000000 ] (HELLO)
r 1.018089079 _6_ RTR  --- 0 WCETT 284 [0 ffffffff a 800] ------- [10:255 -1:255 1 0] [0x1 1 [10 18] 4.000000 ] (HELLO)
r 1.018089079 _8_ RTR  --- 0 WCETT 284 [0 ffffffff a 800] ------- [10:255 -1:255 1 0] [0x1 1 [10 18] 4.000000 ] (HELLO)
r 1.018089333 _2_ RTR  --- 0 WCETT 284 [0 ffffffff 8 800] ------- [8:255 -1:255 1 0] [0x1 1 [8 12] 4.000000 ] (HELLO)
r 1.018089412 _10_ RTR  --- 0 WCETT 284 [0 ffffffff 8 800] ------- [8:255 -1:255 1 0] [0x1 1 [8 12] 4.000000 ] (HELLO)
r 1.021212000 _14_ RTR  --- 0 WCETT 284 [0 ffffffff 11 800] ------- [17:255 -1:255 1 0] [0x1 1 [17 10] 4.000000 ] (HELLO)
r 1.021212333 _11_ RTR  --- 0 WCETT 284 [0 ffffffff 11 800] ------- [17:255 -1:255 1 0] [0x1 1 [17 10] 4.000000 ] (HELLO)
r 1.021212333 _16_ RTR  --- 0 WCETT 284 [0 ffffffff 11 800] ------- [17:255 -1:255 1 0] [0x1 1 [17 10] 4.000000 ] (HELLO)
r 1.021212374 _0_ RTR  --- 0 WCETT 284 [0 ffffffff 3 800] ------- [3:255 -1:255 1 0] [0x1 1 [3 14] 4.000000 ] (HELLO)
r 1.021212374 _6_ RTR  --- 0 WCETT 284 [0 ffffffff 3 800] ------- [3:255 -1:255 1 0] [0x1 1 [3 14] 4.000000 ] (HELLO)
r 1.021212491 _3_ RTR  --- 0 WCETT 284 [0 ffffffff 0 800] ------- [0:255 -1:255 1 0] [0x1 1 [0 10] 4.000000 ] (HELLO)
r 1.024355491 _6_ RTR  --- 0 WCETT 284 [0 ffffffff 9 800] ------- [9:255 -1:255 1 0] [0x1 1 [9 14] 4.000000 ] (HELLO)
r 1.024355491 _12_ RTR  --- 0 WCETT 284 [0 ffffffff 9 800] ------- [9:255 -1:255 1 0] [0x1 1 [9 14] 4.000000 ] (HELLO)
r 1.024355667 _3_ RTR  --- 0 WCETT 284 [0 ffffffff 6 800] ------- [6:255 -1:255 1 0] [0x1 1 [6 14] 4.000000 ] (HELLO)
r 1.024355667 _9_ RTR  --- 0 WCETT 284 [0 ffffffff 6 800] ------- [6:255 -1:255 1 0] [0x1 1 [6 14] 4.000000 ] (HELLO)
r 1.027518609 _10_ RTR  --- 0 WCETT 284 [0 ffffffff d 800] ------- [13:255 -1:255 1 0] [0x1 1 [13 14] 4.000000 ] (HELLO)
r 1.027518609 _16_ RTR  --- 0 WCETT 284 [0 ffffffff d 800] ------- [13:255 -1:255 1 0] [0x1 1 [13 14] 4.000000 ] (HELLO)
r 1.027518943 _7_ RTR  --- 0 WCETT 284 [0 ffffffff d 800] ------- [13:255 -1:255 1 0] [0x1 1 [13 14] 4.000000 ] (HELLO)
r 1.027518943 _12_ RTR  --- 0 WCETT 284 [0 ffffffff d 800] ------- [13:255 -1:255 1 0] [0x1 1 [13 14] 4.000000 ] (HELLO)
r 1.027518943 _14_ RTR  --- 0 WCETT 284 [0 ffffffff d 800] ------- [13:255 -1:255 1 0] [0x1 1 [13 14] 4.000000 ] (HELLO)
r 1.027519021 _15_ RTR  --- 0 WCETT 284 [0 ffffffff d 800] ------- [13:255 -1:255 1 0] [0x1 1 [13 14] 4.000000 ] (HELLO)
r 1.027519021 _9_ RTR  --- 0 WCETT 284 [0 ffffffff d 800] ------- [13:255 -1:255 1 0] [0x1 1 [13 14] 4.000000 ] (HELLO)
r 1.027519021 _11_ RTR  --- 0 WCETT 284 [0 ffffffff d 800] ------- [13:255 -1:255 1 0] [0x1 1 [13 14] 4.000000 ] (HELLO)
r 1.027519021 _17_ RTR  --- 0 WCETT 284 [0 ffffffff d 800] ------- [13:255 -1:255 1 0] [0x1 1 [13 14] 4.000000 ] (HELLO)
r 1.030296943 _13_ RTR  --- 0 WCETT 284 [0 ffffffff 10 800] ------- [16:255 -1:255 1 0] [0x1 1 [16 10] 4.000000 ] (HELLO)
r 1.030297276 _10_ RTR  --- 0 WCETT 284 [0 ffffffff 10 800] ------- [16:255 -1:255 1 0] [0x1 1 [16 10] 4.000000 ] (HELLO)
r 1.030297276 _15_ RTR  --- 0 WCETT 284 [0 ffffffff 10 800] ------- [16:255 -1:255 1 0] [0x1 1 [16 10] 4.000000 ] (HELLO)
r 1.030297276 _17_ RTR  --- 0 WCETT 284 [0 ffffffff 10 800] ------- [16:255 -1:255 1 0] [0x1 1 [16 10] 4.000000 ] (HELLO)
r 1.030297355 _12_ RTR  --- 0 WCETT 284 [0 ffffffff 10 800] ------- [16:255 -1:255 1 0] [0x1 1 [16 10] 4.000000 ] (HELLO)
r 1.030297355 _14_ RTR  --- 0 WCETT 284 [0 ffffffff 10 800] ------- [16:255 -1:255 1 0] [0x1 1 [16 10] 4.000000 ] (HELLO)
r 1.033135688 _11_ RTR  --- 0 WCETT 284 [0 ffffffff e 800] ------- [14:255 -1:255 1 0] [0x1 1 [14 12] 4.000000 ] (HELLO)
r 1.033135688 _17_ RTR  --- 0 WCETT 284 [0 ffffffff e 800] ------- [14:255 -1:255 1 0] [0x1 1 [14 12] 4.000000 ] (HELLO)
r 1.033136021 _8_ RTR  --- 0 WCETT 284 [0 ffffffff e 800] ------- [14:255 -1:255 1 0] [0x1 1 [14 12] 4.000000 ] (HELLO)
r 1.033136021 _13_ RTR  --- 0 WCETT 284 [0 ffffffff e 800] ------- [14:255 -1:255 1 0] [0x1 1 [14 12] 4.000000 ] (HELLO)
r 1.033136100 _16_ RTR  --- 0 WCETT 284 [0 ffffffff e 800] ------- [14:255 -1:255 1 0] [0x1 1 [14 12] 4.000000 ] (HELLO)
r 1.033136100 _10_ RTR  --- 0 WCETT 284 [0 ffffffff e 800] ------- [14:255 -1:255 1 0] [0x1 1 [14 12] 4.000000 ] (HELLO)
r 1.036074021 _8_ RTR  --- 0 WCETT 284 [0 ffffffff b 800] ------- [11:255 -1:255 1 0] [0x1 1 [11 12] 4.000000 ] (HELLO)
r 1.036074021 _14_ RTR  --- 0 WCETT 284 [0 ffffffff b 800] ------- [11:255 -1:255 1 0] [0x1 1 [11 12] 4.000000 ] (HELLO)
r 1.036074355 _5_ RTR  --- 0 WCETT 284 [0 ffffffff b 800] ------- [11:255 -1:255 1 0] [0x1 1 [11 12] 4.000000 ] (HELLO)
r 1.036074355 _10_ RTR  --- 0 WCETT 284 [0 ffffffff b 800] ------- [11:255 -1:255 1 0] [0x1 1 [11 12] 4.000000 ] (HELLO)
r 1.036074355 _17_ RTR  --- 0 WCETT 284 [0 ffffffff b 800] ------- [11:255 -1:255 1 0] [0x1 1 [11 12] 4.000000 ] (HELLO)
r 1.036074434 _13_ RTR  --- 0 WCETT 284 [0 ffffffff b 800] ------- [11:255 -1:255 1 0] [0x1 1 [11 12] 4.000000 ] (HELLO)
r 1.036074434 _7_ RTR  --- 0 WCETT 284 [0 ffffffff b 800] ------- [11:255 -1:255 1 0] [0x1 1 [11 12] 4.000000 ] (HELLO)
s 2.000000000 _0_ RTR  --- 0 WCETT 284 [0 0 0 0] ------- [0:255 -1:255 1 0] [0x1 1 [0 10] 4.000000 ] (HELLO)
s 2.000000000 _1_ RTR  --- 0 WCETT 284 [0 0 0 0] ------- [1:255 -1:255 1 0] [0x1 1 [1 12] 4.000000 ] (HELLO)
s 2.000000000 _2_ RTR  --- 0 WCETT 284 [0 0 0 0] ------- [2:255 -1:255 1 0] [0x1 1 [2 10] 4.000000 ] (HELLO)
s 2.000000000 _3_ RTR  --- 0 WCETT 284 [0 0 0 0] ------- [3:255 -1:255 1 0] [0x1 1 [3 14] 4.000000 ] (HELLO)
s 2.000000000 _4_ RTR  --- 0 WCETT 284 [0 0 0 0] ------- [4:255 -1:255 1 0] [0x1 1 [4 14] 4.000000 ] (HELLO)
s 2.000000000 _5_ RTR  --- 0 WCETT 284 [0 0 0 0] ------- [5:255 -1:255 1 0] [0x1 1 [5 14] 4.000000 ] (HELLO)
s 2.000000000 _6_ RTR  --- 0 WCETT 284 [0 0 0 0] ------- [6:255 -1:255 1 0] [0x1 1 [6 16] 4.000000 ] (HELLO)
s 2.000000000 _7_ RTR  --- 0 WCETT 284 [0 0 0 0] ------- [7:255 -1:255 1 0] [0x1 1 [7 18] 4.000000 ] (HELLO)
s 2.000000000 _8_ RTR  --- 0 WCETT 284 [0 0 0 0] ------- [8:255 -1:255 1 0] [0x1 1 [8 14] 4.000000 ] (HELLO)
s 2.000000000 _9_ RTR  --- 0 WCETT 284 [0 0 0 0] ------- [9:255 -1:255 1 0] [0x1 1 [9 16] 4.000000 ] (HELLO)
s 2.000000000 _10_ RTR  --- 0 WCETT 284 [0 0 0 0] ------- [10:255 -1:255 1 0] [0x1 1 [10 20] 4.000000 ] (HELLO)
s 2.000000000 _11_ RTR  --- 0 WCETT 284 [0 0 0 0] ------- [11:255 -1:255 1 0] [0x1 1 [11 14] 4.000000 ] (HELLO)
s 2.000000000 _12_ RTR  --- 0 WCETT 284 [0 0 0 0] ------- [12:255 -1:255 1 0] [0x1 1 [12 14] 4.000000 ] (HELLO)
s 2.000000000 _13_ RTR  --- 0 WCETT 284 [0 0 0 0] ------- [13:255 -1:255 1 0] [0x1 1 [13 16] 4.000000 ] (HELLO)
s 2.000000000 _14_ RTR  --- 0 WCETT 284 [0 0 0 0] ------- [14:255 -1:255 1 0] [0x1 1 [14 14] 4.000000 ] (HELLO)
s 2.000000000 _15_ RTR  --- 0 WCETT 284 [0 0 0 0] ------- [15:255 -1:255 1 0] [0x1 1 [15 10] 4.000000 ] (HELLO)
s 2.000000000 _16_ RTR  --- 0 WCETT 284 [0 0 0 0] ------- [16:255 -1:255 1 0] [0x1 1 [16 14] 4.000000 ] (HELLO)
s 2.000000000 _17_ RTR  --- 0 WCETT 284 [0 0 0 0] ------- [17:255 -1:255 1 0] [0x1 1 [17 10] 4.000000 ] (HELLO)
r 2.002828333 _11_ RTR  --- 0 WCETT 284 [0 ffffffff e 800] ------- [14:255 -1:255 1 0] [0x1 1 [14 14] 4.000000 ] (HELLO)
r 2.002828333 _17_ RTR  --- 0 WCETT 284 [0 ffffffff e 800] ------- [14:255 -1:255 1 0] [0x1 1 [14 14] 4.000000 ] (HELLO)
r 2.002828667 _8_ RTR  --- 0 WCETT 284 [0 ffffffff e 800] ------- [14:255 -1:255 1 0] [0x1 1 [14 14] 4.000000 ] (HELLO)
r 2.002828667 _13_ RTR  --- 0 WCETT 284 [0 ffffffff e 800] ------- [14:255 -1:255 1 0] [0x1 1 [14 14] 4.000000 ] (HELLO)
r 2.002828745 _16_ RTR  --- 0 WCETT 284 [0 ffffffff e 800] ------- [14:255 -1:255 1 0] [0x1 1 [14 14] 4.000000 ] (HELLO)
r 2.005706667 _14_ RTR  --- 0 WCETT 284 [0 ffffffff 11 800] ------- [17:255 -1:255 1 0] [0x1 1 [17 10] 4.000000 ] (HELLO)
r 2.005707000 _11_ RTR  --- 0 WCETT 284 [0 ffffffff 11 800] ------- [17:255 -1:255 1 0] [0x1 1 [17 10] 4.000000 ] (HELLO)
r 2.005707000 _16_ RTR  --- 0 WCETT 284 [0 ffffffff 11 800] ------- [17:255 -1:255 1 0] [0x1 1 [17 10] 4.000000 ] (HELLO)
r 2.006030667 _0_ RTR  --- 0 WCETT 284 [0 ffffffff 3 800] ------- [3:255 -1:255 1 0] [0x1 1 [3 14] 4.000000 ] (HELLO)
r 2.009153333 _1_ RTR  --- 0 WCETT 284 [0 ffffffff 4 800] ------- [4:255 -1:255 1 0] [0x1 1 [4 14] 4.000000 ] (HELLO)
r 2.009153333 _7_ RTR  --- 0 WCETT 284 [0 ffffffff 4 800] ------- [4:255 -1:255 1 0] [0x1 1 [4 14] 4.000000 ] (HELLO)
r 2.009153667 _3_ RTR  --- 0 WCETT 284 [0 ffffffff 4 800] ------- [4:255 -1:255 1 0] [0x1 1 [4 14] 4.000000 ] (HELLO)
r 2.009153667 _10_ RTR  --- 0 WCETT 284 [0 ffffffff 4 800] ------- [4:255 -1:255 1 0] [0x1 1 [4 14] 4.000000 ] (HELLO)
r 2.009153667 _5_ RTR  --- 0 WCETT 284 [0 ffffffff 4 800] ------- [4:255 -1:255 1 0] [0x1 1 [4 14] 4.000000 ] (HELLO)
r 2.009153745 _6_ RTR  --- 0 WCETT 284 [0 ffffffff 4 800] ------- [4:255 -1:255 1 0] [0x1 1 [4 14] 4.000000 ] (HELLO)
r 2.009153745 _0_ RTR  --- 0 WCETT 284 [0 ffffffff 4 800] ------- [4:255 -1:255 1 0] [0x1 1 [4 14] 4.000000 ] (HELLO)
r 2.009153745 _2_ RTR  --- 0 WCETT 284 [0 ffffffff 4 800] ------- [4:255 -1:255 1 0] [0x1 1 [4 14] 4.000000 ] (HELLO)
r 2.009153745 _8_ RTR  --- 0 WCETT 284 [0 ffffffff 4 800] ------- [4:255 -1:255 1 0] [0x1 1 [4 14] 4.000000 ] (HELLO)
r 2.011952079 _3_ RTR  --- 0 WCETT 284 [0 ffffffff 6 800] ------- [6:255 -1:255 1 0] [0x1 1 [6 16] 4.000000 ] (HELLO)
r 2.011952079 _9_ RTR  --- 0 WCETT 284 [0 ffffffff 6 800] ------- [6:255 -1:255 1 0] [0x1 1 [6 16] 4.000000 ] (HELLO)
r 2.011952412 _0_ RTR  --- 0 WCETT 284 [0 ffffffff 6 800] ------- [6:255 -1:255 1 0] [0x1 1 [6 16] 4.000000 ] (HELLO)
r 2.011952412 _12_ RTR  --- 0 WCETT 284 [0 ffffffff 6 800] ------- [6:255 -1:255 1 0] [0x1 1 [6 16] 4.000000 ] (HELLO)