n -t * -s 0  -x 100 -y 100 -Z 0 -z 30  -v circle -c black
n -t * -s 1  -x 300 -y 100 -Z 0 -z 30  -v circle -c black
n -t * -s 2  -x 500 -y 100 -Z 0 -z 30  -v circle -c black
n -t * -s 3  -x 100 -y 300 -Z 0 -z 30  -v circle -c black
n -t * -s 4  -x 300 -y 300 -Z 0 -z 30  -v circle -c black
n -t * -s 5  -x 500 -y 300 -Z 0 -z 30  -v circle -c black
n -t * -s 6  -x 100 -y 500 -Z 0 -z 30  -v circle -c black
n -t * -s 7  -x 300 -y 500 -Z 0 -z 30  -v circle -c black
n -t * -s 8  -x 500 -y 500 -Z 0 -z 30  -v circle -c black
n -t * -s 9  -x 500 -y 200 -Z 0 -z 30  -v circle -c black
V -t * -v 1.0a5 -a 0
W -t * -x 500 -y 500
A -t * -n 1 -p 0 -o 0xffffffff -c 31 -a 1
A -t * -h 1 -m 2147483647 -s 0
+ -t 15.000000000 -s 0 -d -1 -p cbr -e 512 -c 2 -a 0 -i 0 -k AGT 
- -t 15.000000000 -s 0 -d -1 -p cbr -e 512 -c 2 -a 0 -i 0 -k AGT
h -t 15.000000000 -s 0 -d -1 -p cbr -e 512 -c 2 -a 0 -i 0 -k AGT
+ -t 15.000000000 -s 1 -d -1 -p cbr -e 512 -c 2 -a 0 -i 2 -k AGT 
- -t 15.000000000 -s 1 -d -1 -p cbr -e 512 -c 2 -a 0 -i 2 -k AGT
h -t 15.000000000 -s 1 -d -1 -p cbr -e 512 -c 2 -a 0 -i 2 -k AGT
+ -t 15.000000000 -s 3 -d -1 -p cbr -e 512 -c 2 -a 0 -i 4 -k AGT 
- -t 15.000000000 -s 3 -d -1 -p cbr -e 512 -c 2 -a 0 -i 4 -k AGT
h -t 15.000000000 -s 3 -d -1 -p cbr -e 512 -c 2 -a 0 -i 4 -k AGT
+ -t 15.006147633 -s 3 -d -1 -p DSR -e 32 -c 2 -a 0 -i 5 -k RTR 
- -t 15.006147633 -s 3 -d -1 -p DSR -e 32 -c 2 -a 0 -i 5 -k RTR
h -t 15.006147633 -s 3 -d -1 -p DSR -e 32 -c 2 -a 0 -i 5 -k RTR
+ -t 15.007717238 -s 0 -d -1 -p DSR -e 32 -c 2 -a 0 -i 1 -k RTR 
- -t 15.007717238 -s 0 -d -1 -p DSR -e 32 -c 2 -a 0 -i 1 -k RTR
h -t 15.007717238 -s 0 -d -1 -p DSR -e 32 -c 2 -a 0 -i 1 -k RTR
+ -t 15.008077498 -s 1 -d -1 -p DSR -e 32 -c 2 -a 0 -i 3 -k RTR 
- -t 15.008077498 -s 1 -d -1 -p DSR -e 32 -c 2 -a 0 -i 3 -k RTR
h -t 15.008077498 -s 1 -d -1 -p DSR -e 32 -c 2 -a 0 -i 3 -k RTR
+ -t 15.037959781 -s 1 -d -1 -p DSR -e 32 -c 2 -a 0 -i 8 -k RTR 
- -t 15.037959781 -s 1 -d -1 -p DSR -e 32 -c 2 -a 0 -i 8 -k RTR
h -t 15.037959781 -s 1 -d -1 -p DSR -e 32 -c 2 -a 0 -i 8 -k RTR
+ -t 15.041709729 -s 0 -d -1 -p DSR -e 48 -c 2 -a 0 -i 8 -k RTR 
- -t 15.041709729 -s 0 -d -1 -p DSR -e 48 -c 2 -a 0 -i 8 -k RTR
h -t 15.041709729 -s 0 -d -1 -p DSR -e 48 -c 2 -a 0 -i 8 -k RTR
+ -t 15.043718373 -s 2 -d -1 -p DSR -e 48 -c 2 -a 0 -i 8 -k RTR 
- -t 15.043718373 -s 2 -d -1 -p DSR -e 48 -c 2 -a 0 -i 8 -k RTR
h -t 15.043718373 -s 2 -d -1 -p DSR -e 48 -c 2 -a 0 -i 8 -k RTR
+ -t 15.044173334 -s 4 -d -1 -p DSR -e 48 -c 2 -a 0 -i 8 -k RTR 
- -t 15.044173334 -s 4 -d -1 -p DSR -e 48 -c 2 -a 0 -i 8 -k RTR
h -t 15.044173334 -s 4 -d -1 -p DSR -e 48 -c 2 -a 0 -i 8 -k RTR
+ -t 15.046827607 -s 9 -d -1 -p DSR -e 48 -c 2 -a 0 -i 8 -k RTR 
- -t 15.046827607 -s 9 -d -1 -p DSR -e 48 -c 2 -a 0 -i 8 -k RTR
h -t 15.046827607 -s 9 -d -1 -p DSR -e 48 -c 2 -a 0 -i 8 -k RTR
+ -t 15.047931205 -s 3 -d -1 -p DSR -e 68 -c 2 -a 0 -i 8 -k RTR 
- -t 15.047931205 -s 3 -d -1 -p DSR -e 68 -c 2 -a 0 -i 8 -k RTR
h -t 15.047931205 -s 3 -d -1 -p DSR -e 68 -c 2 -a 0 -i 8 -k RTR
+ -t 15.048652204 -s 5 -d -1 -p DSR -e 68 -c 2 -a 0 -i 8 -k RTR 
- -t 15.048652204 -s 5 -d -1 -p DSR -e 68 -c 2 -a 0 -i 8 -k RTR
h -t 15.048652204 -s 5 -d -1 -p DSR -e 68 -c 2 -a 0 -i 8 -k RTR
+ -t 15.049016183 -s 7 -d -1 -p DSR -e 68 -c 2 -a 0 -i 8 -k RTR 
- -t 15.049016183 -s 7 -d -1 -p DSR -e 68 -c 2 -a 0 -i 8 -k RTR
h -t 15.049016183 -s 7 -d -1 -p DSR -e 68 -c 2 -a 0 -i 8 -k RTR
+ -t 15.056366295 -s 6 -d 3 -p DSR -e 60 -c 2 -a 0 -i 9 -k RTR 
- -t 15.056366295 -s 6 -d 3 -p DSR -e 60 -c 2 -a 0 -i 9 -k RTR
h -t 15.056366295 -s 6 -d 3 -p DSR -e 60 -c 2 -a 0 -i 9 -k RTR
+ -t 15.058460295 -s 3 -d 0 -p DSR -e 60 -c 2 -a 0 -i 9 -k RTR 
- -t 15.058460295 -s 3 -d 0 -p DSR -e 60 -c 2 -a 0 -i 9 -k RTR
h -t 15.058460295 -s 3 -d 0 -p DSR -e 60 -c 2 -a 0 -i 9 -k RTR
+ -t 15.058813813 -s 8 -d -1 -p DSR -e 92 -c 2 -a 0 -i 8 -k RTR 
- -t 15.058813813 -s 8 -d -1 -p DSR -e 92 -c 2 -a 0 -i 8 -k RTR
h -t 15.058813813 -s 8 -d -1 -p DSR -e 92 -c 2 -a 0 -i 8 -k RTR
+ -t 15.060758295 -s 0 -d 1 -p DSR -e 60 -c 2 -a 0 -i 9 -k RTR 
- -t 15.060758295 -s 0 -d 1 -p DSR -e 60 -c 2 -a 0 -i 9 -k RTR
h -t 15.060758295 -s 0 -d 1 -p DSR -e 60 -c 2 -a 0 -i 9 -k RTR
+ -t 15.061230066 -s 6 -d 7 -p DSR -e 60 -c 2 -a 0 -i 10 -k RTR 
- -t 15.061230066 -s 6 -d 7 -p DSR -e 60 -c 2 -a 0 -i 10 -k RTR
h -t 15.061230066 -s 6 -d 7 -p DSR -e 60 -c 2 -a 0 -i 10 -k RTR
+ -t 15.063081628 -s 7 -d 4 -p DSR -e 60 -c 2 -a 0 -i 10 -k RTR 
- -t 15.063081628 -s 7 -d 4 -p DSR -e 60 -c 2 -a 0 -i 10 -k RTR
h -t 15.063081628 -s 7 -d 4 -p DSR -e 60 -c 2 -a 0 -i 10 -k RTR
+ -t 15.066562534 -s 3 -d -1 -p DSR -e 32 -c 2 -a 0 -i 11 -k RTR 
- -t 15.066562534 -s 3 -d -1 -p DSR -e 32 -c 2 -a 0 -i 11 -k RTR
h -t 15.066562534 -s 3 -d -1 -p DSR -e 32 -c 2 -a 0 -i 11 -k RTR
+ -t 15.066572961 -s 4 -d 1 -p DSR -e 60 -c 2 -a 0 -i 10 -k RTR 
- -t 15.066572961 -s 4 -d 1 -p DSR -e 60 -c 2 -a 0 -i 10 -k RTR
h -t 15.066572961 -s 4 -d 1 -p DSR -e 60 -c 2 -a 0 -i 10 -k RTR
+ -t 15.068850961 -s 1 -d 4 -p cbr -e 556 -c 2 -a 0 -i 2 -k RTR 
- -t 15.068850961 -s 1 -d 4 -p cbr -e 556 -c 2 -a 0 -i 2 -k RTR
h -t 15.068850961 -s 1 -d 4 -p cbr -e 556 -c 2 -a 0 -i 2 -k RTR
+ -t 15.074771860 -s 0 -d 1 -p cbr -e 556 -c 2 -a 0 -i 0 -k RTR 
- -t 15.074771860 -s 0 -d 1 -p cbr -e 556 -c 2 -a 0 -i 0 -k RTR
h -t 15.074771860 -s 0 -d 1 -p cbr -e 556 -c 2 -a 0 -i 0 -k RTR
+ -t 15.074776961 -s 4 -d 7 -p cbr -e 556 -c 2 -a 0 -i 2 -k RTR 
- -t 15.074776961 -s 4 -d 7 -p cbr -e 556 -c 2 -a 0 -i 2 -k RTR
h -t 15.074776961 -s 4 -d 7 -p cbr -e 556 -c 2 -a 0 -i 2 -k RTR
+ -t 15.080008009 -s 4 -d -1 -p DSR -e 48 -c 2 -a 0 -i 11 -k RTR 
- -t 15.080008009 -s 4 -d -1 -p DSR -e 48 -c 2 -a 0 -i 11 -k RTR
h -t 15.080008009 -s 4 -d -1 -p DSR -e 48 -c 2 -a 0 -i 11 -k RTR
+ -t 15.080765539 -s 6 -d -1 -p DSR -e 48 -c 2 -a 0 -i 11 -k RTR 
- -t 15.080765539 -s 6 -d -1 -p DSR -e 48 -c 2 -a 0 -i 11 -k RTR
h -t 15.080765539 -s 6 -d -1 -p DSR -e 48 -c 2 -a 0 -i 11 -k RTR
+ -t 15.081595904 -s 7 -d 6 -p cbr -e 556 -c 2 -a 0 -i 2 -k RTR 
- -t 15.081595904 -s 7 -d 6 -p cbr -e 556 -c 2 -a 0 -i 2 -k RTR
h -t 15.081595904 -s 7 -d 6 -p cbr -e 556 -c 2 -a 0 -i 2 -k RTR
+ -t 15.083974846 -s 0 -d -1 -p DSR -e 48 -c 2 -a 0 -i 11 -k RTR 
- -t 15.083974846 -s 0 -d -1 -p DSR -e 48 -c 2 -a 0 -i 11 -k RTR
h -t 15.083974846 -s 0 -d -1 -p DSR -e 48 -c 2 -a 0 -i 11 -k RTR
r -t 15.088782847 -s 6 -d 6 -p cbr -e 512 -c 2 -a 0 -i 2 -k AGT
+ -t 15.089655492 -s 7 -d -1 -p DSR -e 68 -c 2 -a 0 -i 11 -k RTR 
- -t 15.089655492 -s 7 -d -1 -p DSR -e 68 -c 2 -a 0 -i 11 -k RTR
h -t 15.089655492 -s 7 -d -1 -p DSR -e 68 -c 2 -a 0 -i 11 -k RTR
+ -t 15.091466736 -s 8 -d -1 -p DSR -e 92 -c 2 -a 0 -i 11 -k RTR 
- -t 15.091466736 -s 8 -d -1 -p DSR -e 92 -c 2 -a 0 -i 11 -k RTR
h -t 15.091466736 -s 8 -d -1 -p DSR -e 92 -c 2 -a 0 -i 11 -k RTR
+ -t 15.093289712 -s 5 -d -1 -p DSR -e 68 -c 2 -a 0 -i 11 -k RTR 
- -t 15.093289712 -s 5 -d -1 -p DSR -e 68 -c 2 -a 0 -i 11 -k RTR
h -t 15.093289712 -s 5 -d -1 -p DSR -e 68 -c 2 -a 0 -i 11 -k RTR
+ -t 15.096022545 -s 9 -d -1 -p DSR -e 68 -c 2 -a 0 -i 11 -k RTR 
- -t 15.096022545 -s 9 -d -1 -p DSR -e 68 -c 2 -a 0 -i 11 -k RTR
h -t 15.096022545 -s 9 -d -1 -p DSR -e 68 -c 2 -a 0 -i 11 -k RTR
+ -t 15.098310982 -s 1 -d -1 -p DSR -e 68 -c 2 -a 0 -i 11 -k RTR 
- -t 15.098310982 -s 1 -d -1 -p DSR -e 68 -c 2 -a 0 -i 11 -k RTR
h -t 15.098310982 -s 1 -d -1 -p DSR -e 68 -c 2 -a 0 -i 11 -k RTR
+ -t 15.102388614 -s 1 -d 4 -p cbr -e 556 -c 2 -a 0 -i 0 -k RTR 
- -t 15.102388614 -s 1 -d 4 -p cbr -e 556 -c 2 -a 0 -i 0 -k RTR
h -t 15.102388614 -s 1 -d 4 -p cbr -e 556 -c 2 -a 0 -i 0 -k RTR
+ -t 15.102866740 -s 3 -d -1 -p cbr -e 512 -c 2 -a 0 -i 13 -k AGT 
- -t 15.102866740 -s 3 -d -1 -p cbr -e 512 -c 2 -a 0 -i 13 -k AGT
h -t 15.102866740 -s 3 -d -1 -p cbr -e 512 -c 2 -a 0 -i 13 -k AGT
+ -t 15.104501188 -s 1 -d -1 -p cbr -e 512 -c 2 -a 0 -i 16 -k AGT 
- -t 15.104501188 -s 1 -d -1 -p cbr -e 512 -c 2 -a 0 -i 16 -k AGT
h -t 15.104501188 -s 1 -d -1 -p cbr -e 512 -c 2 -a 0 -i 16 -k AGT
+ -t 15.104501188 -s 1 -d 4 -p cbr -e 556 -c 2 -a 0 -i 16 -k RTR 
- -t 15.104501188 -s 1 -d 4 -p cbr -e 556 -c 2 -a 0 -i 16 -k RTR
h -t 15.104501188 -s 1 -d 4 -p cbr -e 556 -c 2 -a 0 -i 16 -k RTR
+ -t 15.106634068 -s 2 -d 1 -p DSR -e 60 -c 2 -a 0 -i 15 -k RTR 
- -t 15.106634068 -s 2 -d 1 -p DSR -e 60 -c 2 -a 0 -i 15 -k RTR
h -t 15.106634068 -s 2 -d 1 -p DSR -e 60 -c 2 -a 0 -i 15 -k RTR
+ -t 15.111316078 -s 2 -d 5 -p DSR -e 60 -c 2 -a 0 -i 18 -k RTR 
- -t 15.111316078 -s 2 -d 5 -p DSR -e 60 -c 2 -a 0 -i 18 -k RTR
h -t 15.111316078 -s 2 -d 5 -p DSR -e 60 -c 2 -a 0 -i 18 -k RTR
+ -t 15.112310635 -s 4 -d 7 -p cbr -e 556 -c 2 -a 0 -i 0 -k RTR 
- -t 15.112310635 -s 4 -d 7 -p cbr -e 556 -c 2 -a 0 -i 0 -k RTR
h -t 15.112310635 -s 4 -d 7 -p cbr -e 556 -c 2 -a 0 -i 0 -k RTR
+ -t 15.113904407 -s 0 -d -1 -p cbr -e 512 -c 2 -a 0 -i 19 -k AGT 
- -t 15.113904407 -s 0 -d -1 -p cbr -e 512 -c 2 -a 0 -i 19 -k AGT
h -t 15.113904407 -s 0 -d -1 -p cbr -e 512 -c 2 -a 0 -i 19 -k AGT
+ -t 15.113904407 -s 0 -d 1 -p cbr -e 556 -c 2 -a 0 -i 19 -k RTR 
- -t 15.113904407 -s 0 -d 1 -p cbr -e 556 -c 2 -a 0 -i 19 -k RTR
h -t 15.113904407 -s 0 -d 1 -p cbr -e 556 -c 2 -a 0 -i 19 -k RTR
+ -t 15.114358439 -s 2 -d 9 -p DSR -e 60 -c 2 -a 0 -i 17 -k RTR 
- -t 15.114358439 -s 2 -d 9 -p DSR -e 60 -c 2 -a 0 -i 17 -k RTR
h -t 15.114358439 -s 2 -d 9 -p DSR -e 60 -c 2 -a 0 -i 17 -k RTR
+ -t 15.118537302 -s 4 -d 7 -p cbr -e 556 -c 2 -a 0 -i 16 -k RTR 
- -t 15.118537302 -s 4 -d 7 -p cbr -e 556 -c 2 -a 0 -i 16 -k RTR
h -t 15.118537302 -s 4 -d 7 -p cbr -e 556 -c 2 -a 0 -i 16 -k RTR
r -t 15.124523302 -s 7 -d 7 -p cbr -e 512 -c 2 -a 0 -i 0 -k AGT
+ -t 15.130834793 -s 1 -d 4 -p cbr -e 556 -c 2 -a 0 -i 19 -k RTR 
- -t 15.130834793 -s 1 -d 4 -p cbr -e 556 -c 2 -a 0 -i 19 -k RTR
h -t 15.130834793 -s 1 -d 4 -p cbr -e 556 -c 2 -a 0 -i 19 -k RTR
+ -t 15.136800793 -s 4 -d 7 -p cbr -e 556 -c 2 -a 0 -i 19 -k RTR 
- -t 15.136800793 -s 4 -d 7 -p cbr -e 556 -c 2 -a 0 -i 19 -k RTR
h -t 15.136800793 -s 4 -d 7 -p cbr -e 556 -c 2 -a 0 -i 19 -k RTR
+ -t 15.142886793 -s 7 -d 6 -p cbr -e 556 -c 2 -a 0 -i 16 -k RTR 
- -t 15.142886793 -s 7 -d 6 -p cbr -e 556 -c 2 -a 0 -i 16 -k RTR
h -t 15.142886793 -s 7 -d 6 -p cbr -e 556 -c 2 -a 0 -i 16 -k RTR
r -t 15.148792793 -s 6 -d 6 -p cbr -e 512 -c 2 -a 0 -i 16 -k AGT
+ -t 15.151201617 -s 1 -d 4 -p DSR -e 60 -c 2 -a 0 -i 15 -k RTR 
- -t 15.151201617 -s 1 -d 4 -p DSR -e 60 -c 2 -a 0 -i 15 -k RTR
h -t 15.151201617 -s 1 -d 4 -p DSR -e 60 -c 2 -a 0 -i 15 -k RTR
+ -t 15.153179617 -s 4 -d 3 -p DSR -e 60 -c 2 -a 0 -i 15 -k RTR 
- -t 15.153179617 -s 4 -d 3 -p DSR -e 60 -c 2 -a 0 -i 15 -k RTR
h -t 15.153179617 -s 4 -d 3 -p DSR -e 60 -c 2 -a 0 -i 15 -k RTR
r -t 15.159505617 -s 7 -d 7 -p cbr -e 512 -c 2 -a 0 -i 19 -k AGT
+ -t 15.161724283 -s 3 -d 4 -p cbr -e 556 -c 2 -a 0 -i 4 -k RTR 
- -t 15.161724283 -s 3 -d 4 -p cbr -e 556 -c 2 -a 0 -i 4 -k RTR
h -t 15.161724283 -s 3 -d 4 -p cbr -e 556 -c 2 -a 0 -i 4 -k RTR
+ -t 15.167990283 -s 4 -d 1 -p cbr -e 556 -c 2 -a 0 -i 4 -k RTR 
- -t 15.167990283 -s 4 -d 1 -p cbr -e 556 -c 2 -a 0 -i 4 -k RTR
h -t 15.167990283 -s 4 -d 1 -p cbr -e 556 -c 2 -a 0 -i 4 -k RTR
+ -t 15.168218800 -s 3 -d -1 -p cbr -e 512 -c 2 -a 0 -i 22 -k AGT 
- -t 15.168218800 -s 3 -d -1 -p cbr -e 512 -c 2 -a 0 -i 22 -k AGT
h -t 15.168218800 -s 3 -d -1 -p cbr -e 512 -c 2 -a 0 -i 22 -k AGT
+ -t 15.168218800 -s 3 -d 4 -p cbr -e 556 -c 2 -a 0 -i 22 -k RTR 
- -t 15.168218800 -s 3 -d 4 -p cbr -e 556 -c 2 -a 0 -i 22 -k RTR
h -t 15.168218800 -s 3 -d 4 -p cbr -e 556 -c 2 -a 0 -i 22 -k RTR
+ -t 15.174016283 -s 1 -d 2 -p cbr -e 556 -c 2 -a 0 -i 4 -k RTR 
- -t 15.174016283 -s 1 -d 2 -p cbr -e 556 -c 2 -a 0 -i 4 -k RTR
h -t 15.174016283 -s 1 -d 2 -p cbr -e 556 -c 2 -a 0 -i 4 -k RTR
r -t 15.179962283 -s 2 -d 2 -p cbr -e 512 -c 2 -a 0 -i 4 -k AGT
+ -t 15.181959283 -s 9 -d 4 -p DSR -e 60 -c 2 -a 0 -i 17 -k RTR 
- -t 15.181959283 -s 9 -d 4 -p DSR -e 60 -c 2 -a 0 -i 17 -k RTR
h -t 15.181959283 -s 9 -d 4 -p DSR -e 60 -c 2 -a 0 -i 17 -k RTR
+ -t 15.183353820 -s 1 -d -1 -p cbr -e 512 -c 2 -a 0 -i 23 -k AGT 
- -t 15.183353820 -s 1 -d -1 -p cbr -e 512 -c 2 -a 0 -i 23 -k AGT
h -t 15.183353820 -s 1 -d -1 -p cbr -e 512 -c 2 -a 0 -i 23 -k AGT
+ -t 15.183353820 -s 1 -d 4 -p cbr -e 556 -c 2 -a 0 -i 23 -k RTR 
- -t 15.183353820 -s 1 -d 4 -p cbr -e 556 -c 2 -a 0 -i 23 -k RTR
h -t 15.183353820 -s 1 -d 4 -p cbr -e 556 -c 2 -a 0 -i 23 -k RTR
+ -t 15.184177617 -s 5 -d 4 -p DSR -e 60 -c 2 -a 0 -i 18 -k RTR 
- -t 15.184177617 -s 5 -d 4 -p DSR -e 60 -c 2 -a 0 -i 18 -k RTR
h -t 15.184177617 -s 5 -d 4 -p DSR -e 60 -c 2 -a 0 -i 18 -k RTR
+ -t 15.191450695 -s 4 -d 7 -p cbr -e 556 -c 2 -a 0 -i 23 -k RTR 
- -t 15.191450695 -s 4 -d 7 -p cbr -e 556 -c 2 -a 0 -i 23 -k RTR
h -t 15.191450695 -s 4 -d 7 -p cbr -e 556 -c 2 -a 0 -i 23 -k RTR
+ -t 15.191724283 -s 3 -d 4 -p cbr -e 556 -c 2 -a 0 -i 13 -k RTR 
- -t 15.191724283 -s 3 -d 4 -p cbr -e 556 -c 2 -a 0 -i 13 -k RTR
h -t 15.191724283 -s 3 -d 4 -p cbr -e 556 -c 2 -a 0 -i 13 -k RTR
+ -t 15.193429677 -s 4 -d 3 -p DSR -e 60 -c 2 -a 0 -i 17 -k RTR 
- -t 15.193429677 -s 4 -d 3 -p DSR -e 60 -c 2 -a 0 -i 17 -k RTR
h -t 15.193429677 -s 4 -d 3 -p DSR -e 60 -c 2 -a 0 -i 17 -k RTR
+ -t 15.199446306 -s 4 -d 1 -p cbr -e 556 -c 2 -a 0 -i 22 -k RTR 
- -t 15.199446306 -s 4 -d 1 -p cbr -e 556 -c 2 -a 0 -i 22 -k RTR
h -t 15.199446306 -s 4 -d 1 -p cbr -e 556 -c 2 -a 0 -i 22 -k RTR
+ -t 15.205392972 -s 4 -d 1 -p cbr -e 556 -c 2 -a 0 -i 13 -k RTR 
- -t 15.205392972 -s 4 -d 1 -p cbr -e 556 -c 2 -a 0 -i 13 -k RTR
h -t 15.205392972 -s 4 -d 1 -p cbr -e 556 -c 2 -a 0 -i 13 -k RTR
+ -t 15.205768341 -s 0 -d -1 -p cbr -e 512 -c 2 -a 0 -i 24 -k AGT 
- -t 15.205768341 -s 0 -d -1 -p cbr -e 512 -c 2 -a 0 -i 24 -k AGT
h -t 15.205768341 -s 0 -d -1 -p cbr -e 512 -c 2 -a 0 -i 24 -k AGT
+ -t 15.205768341 -s 0 -d 1 -p cbr -e 556 -c 2 -a 0 -i 24 -k RTR 
- -t 15.205768341 -s 0 -d 1 -p cbr -e 556 -c 2 -a 0 -i 24 -k RTR
h -t 15.205768341 -s 0 -d 1 -p cbr -e 556 -c 2 -a 0 -i 24 -k RTR
+ -t 15.211678972 -s 7 -d 6 -p cbr -e 556 -c 2 -a 0 -i 23 -k RTR 
- -t 15.211678972 -s 7 -d 6 -p cbr -e 556 -c 2 -a 0 -i 23 -k RTR
h -t 15.211678972 -s 7 -d 6 -p cbr -e 556 -c 2 -a 0 -i 23 -k RTR
+ -t 15.219864306 -s 1 -d 2 -p cbr -e 556 -c 2 -a 0 -i 22 -k RTR 
- -t 15.219864306 -s 1 -d 2 -p cbr -e 556 -c 2 -a 0 -i 22 -k RTR
h -t 15.219864306 -s 1 -d 2 -p cbr -e 556 -c 2 -a 0 -i 22 -k RTR
r -t 15.225870306 -s 2 -d 2 -p cbr -e 512 -c 2 -a 0 -i 22 -k AGT
+ -t 15.232221639 -s 1 -d 4 -p cbr -e 556 -c 2 -a 0 -i 24 -k RTR 
- -t 15.232221639 -s 1 -d 4 -p cbr -e 556 -c 2 -a 0 -i 24 -k RTR
h -t 15.232221639 -s 1 -d 4 -p cbr -e 556 -c 2 -a 0 -i 24 -k RTR
+ -t 15.238407639 -s 4 -d 7 -p cbr -e 556 -c 2 -a 0 -i 24 -k RTR 
- -t 15.238407639 -s 4 -d 7 -p cbr -e 556 -c 2 -a 0 -i 24 -k RTR
h -t 15.238407639 -s 4 -d 7 -p cbr -e 556 -c 2 -a 0 -i 24 -k RTR
+ -t 15.244473639 -s 1 -d 2 -p cbr -e 556 -c 2 -a 0 -i 13 -k RTR 
- -t 15.244473639 -s 1 -d 2 -p cbr -e 556 -c 2 -a 0 -i 13 -k RTR
h -t 15.244473639 -s 1 -d 2 -p cbr -e 556 -c 2 -a 0 -i 13 -k RTR
r -t 15.250559639 -s 2 -d 2 -p cbr -e 512 -c 2 -a 0 -i 13 -k AGT
+ -t 15.252887915 -s 4 -d 3 -p DSR -e 60 -c 2 -a 0 -i 18 -k RTR 
- -t 15.252887915 -s 4 -d 3 -p DSR -e 60 -c 2 -a 0 -i 18 -k RTR
h -t 15.252887915 -s 4 -d 3 -p DSR -e 60 -c 2 -a 0 -i 18 -k RTR
+ -t 15.257823318 -s 1 -d -1 -p cbr -e 512 -c 2 -a 0 -i 25 -k AGT 
- -t 15.257823318 -s 1 -d -1 -p cbr -e 512 -c 2 -a 0 -i 25 -k AGT
h -t 15.257823318 -s 1 -d -1 -p cbr -e 512 -c 2 -a 0 -i 25 -k AGT
+ -t 15.257823318 -s 1 -d 4 -p cbr -e 532 -c 2 -a 0 -i 25 -k RTR 
- -t 15.257823318 -s 1 -d 4 -p cbr -e 532 -c 2 -a 0 -i 25 -k RTR
h -t 15.257823318 -s 1 -d 4 -p cbr -e 532 -c 2 -a 0 -i 25 -k RTR
r -t 15.258853915 -s 7 -d 7 -p cbr -e 512 -c 2 -a 0 -i 24 -k AGT
r -t 15.267203525 -s 6 -d 6 -p cbr -e 512 -c 2 -a 0 -i 23 -k AGT
+ -t 15.273563015 -s 4 -d 7 -p cbr -e 532 -c 2 -a 0 -i 25 -k RTR 
- -t 15.273563015 -s 4 -d 7 -p cbr -e 532 -c 2 -a 0 -i 25 -k RTR
h -t 15.273563015 -s 4 -d 7 -p cbr -e 532 -c 2 -a 0 -i 25 -k RTR
+ -t 15.279297015 -s 7 -d 6 -p cbr -e 532 -c 2 -a 0 -i 25 -k RTR 
- -t 15.279297015 -s 7 -d 6 -p cbr -e 532 -c 2 -a 0 -i 25 -k RTR
h -t 15.279297015 -s 7 -d 6 -p cbr -e 532 -c 2 -a 0 -i 25 -k RTR
r -t 15.285471015 -s 6 -d 6 -p cbr -e 512 -c 2 -a 0 -i 25 -k AGT
+ -t 15.286939774 -s 3 -d -1 -p cbr -e 512 -c 2 -a 0 -i 26 -k AGT 
- -t 15.286939774 -s 3 -d -1 -p cbr -e 512 -c 2 -a 0 -i 26 -k AGT
h -t 15.286939774 -s 3 -d -1 -p cbr -e 512 -c 2 -a 0 -i 26 -k AGT
+ -t 15.286939774 -s 3 -d 4 -p cbr -e 532 -c 2 -a 0 -i 26 -k RTR 
- -t 15.286939774 -s 3 -d 4 -p cbr -e 532 -c 2 -a 0 -i 26 -k RTR
h -t 15.286939774 -s 3 -d 4 -p cbr -e 532 -c 2 -a 0 -i 26 -k RTR
+ -t 15.292829774 -s 4 -d 1 -p cbr -e 532 -c 2 -a 0 -i 26 -k RTR 
- -t 15.292829774 -s 4 -d 1 -p cbr -e 532 -c 2 -a 0 -i 26 -k RTR
h -t 15.292829774 -s 4 -d 1 -p cbr -e 532 -c 2 -a 0 -i 26 -k RTR
+ -t 15.298663774 -s 1 -d 2 -p cbr -e 532 -c 2 -a 0 -i 26 -k RTR 
- -t 15.298663774 -s 1 -d 2 -p cbr -e 532 -c 2 -a 0 -i 26 -k RTR
h -t 15.298663774 -s 1 -d 2 -p cbr -e 532 -c 2 -a 0 -i 26 -k RTR
r -t 15.304397774 -s 2 -d 2 -p cbr -e 512 -c 2 -a 0 -i 26 -k AGT
+ -t 15.310985671 -s 0 -d -1 -p cbr -e 512 -c 2 -a 0 -i 27 -k AGT 
- -t 15.310985671 -s 0 -d -1 -p cbr -e 512 -c 2 -a 0 -i 27 -k AGT
h -t 15.310985671 -s 0 -d -1 -p cbr -e 512 -c 2 -a 0 -i 27 -k AGT
+ -t 15.310985671 -s 0 -d 1 -p cbr -e 532 -c 2 -a 0 -i 27 -k RTR 
- -t 15.310985671 -s 0 -d 1 -p cbr -e 532 -c 2 -a 0 -i 27 -k RTR
h -t 15.310985671 -s 0 -d 1 -p cbr -e 532 -c 2 -a 0 -i 27 -k RTR
+ -t 15.316555671 -s 1 -d 4 -p cbr -e 532 -c 2 -a 0 -i 27 -k RTR 
- -t 15.316555671 -s 1 -d 4 -p cbr -e 532 -c 2 -a 0 -i 27 -k RTR
h -t 15.316555671 -s 1 -d 4 -p cbr -e 532 -c 2 -a 0 -i 27 -k RTR
+ -t 15.322649671 -s 4 -d 7 -p cbr -e 532 -c 2 -a 0 -i 27 -k RTR 
- -t 15.322649671 -s 4 -d 7 -p cbr -e 532 -c 2 -a 0 -i 27 -k RTR
h -t 15.322649671 -s 4 -d 7 -p cbr -e 532 -c 2 -a 0 -i 27 -k RTR
r -t 15.328503671 -s 7 -d 7 -p cbr -e 512 -c 2 -a 0 -i 27 -k AGT
+ -t 15.335113133 -s 1 -d -1 -p cbr -e 512 -c 2 -a 0 -i 28 -k AGT 
- -t 15.335113133 -s 1 -d -1 -p cbr -e 512 -c 2 -a 0 -i 28 -k AGT
h -t 15.335113133 -s 1 -d -1 -p cbr -e 512 -c 2 -a 0 -i 28 -k AGT
+ -t 15.335113133 -s 1 -d 4 -p cbr -e 532 -c 2 -a 0 -i 28 -k RTR 
- -t 15.335113133 -s 1 -d 4 -p cbr -e 532 -c 2 -a 0 -i 28 -k RTR
h -t 15.335113133 -s 1 -d 4 -p cbr -e 532 -c 2 -a 0 -i 28 -k RTR
+ -t 15.341043133 -s 4 -d 7 -p cbr -e 532 -c 2 -a 0 -i 28 -k RTR 
- -t 15.341043133 -s 4 -d 7 -p cbr -e 532 -c 2 -a 0 -i 28 -k RTR
h -t 15.341043133 -s 4 -d 7 -p cbr -e 532 -c 2 -a 0 -i 28 -k RTR
+ -t 15.346957133 -s 7 -d 6 -p cbr -e 532 -c 2 -a 0 -i 28 -k RTR 
- -t 15.346957133 -s 7 -d 6 -p cbr -e 532 -c 2 -a 0 -i 28 -k RTR
h -t 15.346957133 -s 7 -d 6 -p cbr -e 532 -c 2 -a 0 -i 28 -k RTR
+ -t 15.347866692 -s 3 -d -1 -p cbr -e 512 -c 2 -a 0 -i 29 -k AGT 
- -t 15.347866692 -s 3 -d -1 -p cbr -e 512 -c 2 -a 0 -i 29 -k AGT
h -t 15.347866692 -s 3 -d -1 -p cbr -e 512 -c 2 -a 0 -i 29 -k AGT
+ -t 15.347866692 -s 3 -d 4 -p cbr -e 532 -c 2 -a 0 -i 29 -k RTR 
- -t 15.347866692 -s 3 -d 4 -p cbr -e 532 -c 2 -a 0 -i 29 -k RTR
h -t 15.347866692 -s 3 -d 4 -p cbr -e 532 -c 2 -a 0 -i 29 -k RTR
r -t 15.352691133 -s 6 -d 6 -p cbr -e 512 -c 2 -a 0 -i 28 -k AGT
+ -t 15.358835410 -s 4 -d 1 -p cbr -e 532 -c 2 -a 0 -i 29 -k RTR 
- -t 15.358835410 -s 4 -d 1 -p cbr -e 532 -c 2 -a 0 -i 29 -k RTR
h -t 15.358835410 -s 4 -d 1 -p cbr -e 532 -c 2 -a 0 -i 29 -k RTR
+ -t 15.365029410 -s 1 -d 2 -p cbr -e 532 -c 2 -a 0 -i 29 -k RTR 
- -t 15.365029410 -s 1 -d 2 -p cbr -e 532 -c 2 -a 0 -i 29 -k RTR
h -t 15.365029410 -s 1 -d 2 -p cbr -e 532 -c 2 -a 0 -i 29 -k RTR
r -t 15.370743410 -s 2 -d 2 -p cbr -e 512 -c 2 -a 0 -i 29 -k AGT
+ -t 15.397243718 -s 1 -d -1 -p cbr -e 512 -c 2 -a 0 -i 30 -k AGT 
- -t 15.397243718 -s 1 -d -1 -p cbr -e 512 -c 2 -a 0 -i 30 -k AGT
h -t 15.397243718 -s 1 -d -1 -p cbr -e 512 -c 2 -a 0 -i 30 -k AGT
+ -t 15.397243718 -s 1 -d 4 -p cbr -e 532 -c 2 -a 0 -i 30 -k RTR 
- -t 15.397243718 -s 1 -d 4 -p cbr -e 532 -c 2 -a 0 -i 30 -k RTR
h -t 15.397243718 -s 1 -d 4 -p cbr -e 532 -c 2 -a 0 -i 30 -k RTR
+ -t 15.402713718 -s 4 -d 7 -p cbr -e 532 -c 2 -a 0 -i 30 -k RTR 
- -t 15.402713718 -s 4 -d 7 -p cbr -e 532 -c 2 -a 0 -i 30 -k RTR
h -t 15.402713718 -s 4 -d 7 -p cbr -e 532 -c 2 -a 0 -i 30 -k RTR
+ -t 15.406693217 -s 3 -d -1 -p cbr -e 512 -c 2 -a 0 -i 31 -k AGT 
- -t 15.406693217 -s 3 -d -1 -p cbr -e 512 -c 2 -a 0 -i 31 -k AGT
h -t 15.406693217 -s 3 -d -1 -p cbr -e 512 -c 2 -a 0 -i 31 -k AGT
+ -t 15.406693217 -s 3 -d 4 -p cbr -e 532 -c 2 -a 0 -i 31 -k RTR 
- -t 15.406693217 -s 3 -d 4 -p cbr -e 532 -c 2 -a 0 -i 31 -k RTR
h -t 15.406693217 -s 3 -d 4 -p cbr -e 532 -c 2 -a 0 -i 31 -k RTR
+ -t 15.408487718 -s 7 -d 6 -p cbr -e 532 -c 2 -a 0 -i 30 -k RTR 
- -t 15.408487718 -s 7 -d 6 -p cbr -e 532 -c 2 -a 0 -i 30 -k RTR
h -t 15.408487718 -s 7 -d 6 -p cbr -e 532 -c 2 -a 0 -i 30 -k RTR
r -t 15.414461718 -s 6 -d 6 -p cbr -e 512 -c 2 -a 0 -i 30 -k AGT
+ -t 15.419501122 -s 0 -d -1 -p cbr -e 512 -c 2 -a 0 -i 32 -k AGT 
- -t 15.419501122 -s 0 -d -1 -p cbr -e 512 -c 2 -a 0 -i 32 -k AGT
h -t 15.419501122 -s 0 -d -1 -p cbr -e 512 -c 2 -a 0 -i 32 -k AGT
+ -t 15.419501122 -s 0 -d 1 -p cbr -e 532 -c 2 -a 0 -i 32 -k RTR 
- -t 15.419501122 -s 0 -d 1 -p cbr -e 532 -c 2 -a 0 -i 32 -k RTR
h -t 15.419501122 -s 0 -d 1 -p cbr -e 532 -c 2 -a 0 -i 32 -k RTR
+ -t 15.420265994 -s 4 -d 1 -p cbr -e 532 -c 2 -a 0 -i 31 -k RTR 
- -t 15.420265994 -s 4 -d 1 -p cbr -e 532 -c 2 -a 0 -i 31 -k RTR
h -t 15.420265994 -s 4 -d 1 -p cbr -e 532 -c 2 -a 0 -i 31 -k RTR
+ -t 15.426344937 -s 1 -d 4 -p cbr -e 532 -c 2 -a 0 -i 32 -k RTR 
- -t 15.426344937 -s 1 -d 4 -p cbr -e 532 -c 2 -a 0 -i 32 -k RTR
h -t 15.426344937 -s 1 -d 4 -p cbr -e 532 -c 2 -a 0 -i 32 -k RTR
+ -t 15.432098937 -s 4 -d 7 -p cbr -e 532 -c 2 -a 0 -i 32 -k RTR 
- -t 15.432098937 -s 4 -d 7 -p cbr -e 532 -c 2 -a 0 -i 32 -k RTR
h -t 15.432098937 -s 4 -d 7 -p cbr -e 532 -c 2 -a 0 -i 32 -k RTR
+ -t 15.437852937 -s 1 -d 2 -p cbr -e 532 -c 2 -a 0 -i 31 -k RTR 
- -t 15.437852937 -s 1 -d 2 -p cbr -e 532 -c 2 -a 0 -i 31 -k RTR
h -t 15.437852937 -s 1 -d 2 -p cbr -e 532 -c 2 -a 0 -i 31 -k RTR
r -t 15.444007604 -s 7 -d 7 -p cbr -e 512 -c 2 -a 0 -i 32 -k AGT
r -t 15.450126937 -s 2 -d 2 -p cbr -e 512 -c 2 -a 0 -i 31 -k AGT
+ -t 15.485806306 -s 3 -d -1 -p cbr -e 512 -c 2 -a 0 -i 33 -k AGT 
- -t 15.485806306 -s 3 -d -1 -p cbr -e 512 -c 2 -a 0 -i 33 -k AGT
h -t 15.485806306 -s 3 -d -1 -p cbr -e 512 -c 2 -a 0 -i 33 -k AGT
+ -t 15.485806306 -s 3 -d 4 -p cbr -e 532 -c 2 -a 0 -i 33 -k RTR 
- -t 15.485806306 -s 3 -d 4 -p cbr -e 532 -c 2 -a 0 -i 33 -k RTR
h -t 15.485806306 -s 3 -d 4 -p cbr -e 532 -c 2 -a 0 -i 33 -k RTR
+ -t 15.490764169 -s 0 -d -1 -p cbr -e 512 -c 2 -a 0 -i 34 -k AGT 
- -t 15.490764169 -s 0 -d -1 -p cbr -e 512 -c 2 -a 0 -i 34 -k AGT
h -t 15.490764169 -s 0 -d -1 -p cbr -e 512 -c 2 -a 0 -i 34 -k AGT
+ -t 15.490764169 -s 0 -d 1 -p cbr -e 532 -c 2 -a 0 -i 34 -k RTR 
- -t 15.490764169 -s 0 -d 1 -p cbr -e 532 -c 2 -a 0 -i 34 -k RTR
h -t 15.490764169 -s 0 -d 1 -p cbr -e 532 -c 2 -a 0 -i 34 -k RTR
+ -t 15.491856306 -s 4 -d 1 -p cbr -e 532 -c 2 -a 0 -i 33 -k RTR 
- -t 15.491856306 -s 4 -d 1 -p cbr -e 532 -c 2 -a 0 -i 33 -k RTR
h -t 15.491856306 -s 4 -d 1 -p cbr -e 532 -c 2 -a 0 -i 33 -k RTR
+ -t 15.497670306 -s 1 -d 2 -p cbr -e 532 -c 2 -a 0 -i 33 -k RTR 
- -t 15.497670306 -s 1 -d 2 -p cbr -e 532 -c 2 -a 0 -i 33 -k RTR
h -t 15.497670306 -s 1 -d 2 -p cbr -e 532 -c 2 -a 0 -i 33 -k RTR
r -t 15.503564306 -s 2 -d 2 -p cbr -e 512 -c 2 -a 0 -i 33 -k AGT
+ -t 15.509663639 -s 1 -d 4 -p cbr -e 532 -c 2 -a 0 -i 34 -k RTR 
- -t 15.509663639 -s 1 -d 4 -p cbr -e 532 -c 2 -a 0 -i 34 -k RTR
h -t 15.509663639 -s 1 -d 4 -p cbr -e 532 -c 2 -a 0 -i 34 -k RTR
+ -t 15.515897639 -s 4 -d 7 -p cbr -e 532 -c 2 -a 0 -i 34 -k RTR 
- -t 15.515897639 -s 4 -d 7 -p cbr -e 532 -c 2 -a 0 -i 34 -k RTR
h -t 15.515897639 -s 4 -d 7 -p cbr -e 532 -c 2 -a 0 -i 34 -k RTR
r -t 15.522151639 -s 7 -d 7 -p cbr -e 512 -c 2 -a 0 -i 34 -k AGT
+ -t 15.528305200 -s 1 -d -1 -p cbr -e 512 -c 2 -a 0 -i 35 -k AGT 
- -t 15.528305200 -s 1 -d -1 -p cbr -e 512 -c 2 -a 0 -i 35 -k AGT
h -t 15.528305200 -s 1 -d -1 -p cbr -e 512 -c 2 -a 0 -i 35 -k AGT
+ -t 15.528305200 -s 1 -d 4 -p cbr -e 532 -c 2 -a 0 -i 35 -k RTR 
- -t 15.528305200 -s 1 -d 4 -p cbr -e 532 -c 2 -a 0 -i 35 -k RTR
h -t 15.528305200 -s 1 -d 4 -p cbr -e 532 -c 2 -a 0 -i 35 -k RTR
+ -t 15.534095200 -s 4 -d 7 -p cbr -e 532 -c 2 -a 0 -i 35 -k RTR 
- -t 15.534095200 -s 4 -d 7 -p cbr -e 532 -c 2 -a 0 -i 35 -k RTR
h -t 15.534095200 -s 4 -d 7 -p cbr -e 532 -c 2 -a 0 -i 35 -k RTR
+ -t 15.540049200 -s 7 -d 6 -p cbr -e 532 -c 2 -a 0 -i 35 -k RTR 
- -t 15.540049200 -s 7 -d 6 -p cbr -e 532 -c 2 -a 0 -i 35 -k RTR
h -t 15.540049200 -s 7 -d 6 -p cbr -e 532 -c 2 -a 0 -i 35 -k RTR
r -t 15.545943200 -s 6 -d 6 -p cbr -e 512 -c 2 -a 0 -i 35 -k AGT
+ -t 15.597171360 -s 3 -d -1 -p cbr -e 512 -c 2 -a 0 -i 36 -k AGT 
- -t 15.597171360 -s 3 -d -1 -p cbr -e 512 -c 2 -a 0 -i 36 -k AGT
h -t 15.597171360 -s 3 -d -1 -p cbr -e 512 -c 2 -a 0 -i 36 -k AGT
+ -t 15.597171360 -s 3 -d 4 -p cbr -e 532 -c 2 -a 0 -i 36 -k RTR 
- -t 15.597171360 -s 3 -d 4 -p cbr -e 532 -c 2 -a 0 -i 36 -k RTR
h -t 15.597171360 -s 3 -d 4 -p cbr -e 532 -c 2 -a 0 -i 36 -k RTR
+ -t 15.603041360 -s 4 -d 1 -p cbr -e 532 -c 2 -a 0 -i 36 -k RTR 
- -t 15.603041360 -s 4 -d 1 -p cbr -e 532 -c 2 -a 0 -i 36 -k RTR
h -t 15.603041360 -s 4 -d 1 -p cbr -e 532 -c 2 -a 0 -i 36 -k RTR
+ -t 15.607454426 -s 0 -d -1 -p cbr -e 512 -c 2 -a 0 -i 37 -k AGT 
- -t 15.607454426 -s 0 -d -1 -p cbr -e 512 -c 2 -a 0 -i 37 -k AGT
h -t 15.607454426 -s 0 -d -1 -p cbr -e 512 -c 2 -a 0 -i 37 -k AGT
+ -t 15.607454426 -s 0 -d 1 -p cbr -e 532 -c 2 -a 0 -i 37 -k RTR 
- -t 15.607454426 -s 0 -d 1 -p cbr -e 532 -c 2 -a 0 -i 37 -k RTR
h -t 15.607454426 -s 0 -d 1 -p cbr -e 532 -c 2 -a 0 -i 37 -k RTR
+ -t 15.609035360 -s 1 -d 2 -p cbr -e 532 -c 2 -a 0 -i 36 -k RTR 
- -t 15.609035360 -s 1 -d 2 -p cbr -e 532 -c 2 -a 0 -i 36 -k RTR
h -t 15.609035360 -s 1 -d 2 -p cbr -e 532 -c 2 -a 0 -i 36 -k RTR
r -t 15.614809360 -s 2 -d 2 -p cbr -e 512 -c 2 -a 0 -i 36 -k AGT
+ -t 15.616304155 -s 1 -d -1 -p cbr -e 512 -c 2 -a 0 -i 38 -k AGT 
- -t 15.616304155 -s 1 -d -1 -p cbr -e 512 -c 2 -a 0 -i 38 -k AGT
h -t 15.616304155 -s 1 -d -1 -p cbr -e 512 -c 2 -a 0 -i 38 -k AGT
+ -t 15.616304155 -s 1 -d 4 -p cbr -e 532 -c 2 -a 0 -i 38 -k RTR 
- -t 15.616304155 -s 1 -d 4 -p cbr -e 532 -c 2 -a 0 -i 38 -k RTR
h -t 15.616304155 -s 1 -d 4 -p cbr -e 532 -c 2 -a 0 -i 38 -k RTR
+ -t 15.621448693 -s 1 -d 4 -p cbr -e 532 -c 2 -a 0 -i 37 -k RTR 
- -t 15.621448693 -s 1 -d 4 -p cbr -e 532 -c 2 -a 0 -i 37 -k RTR
h -t 15.621448693 -s 1 -d 4 -p cbr -e 532 -c 2 -a 0 -i 37 -k RTR
+ -t 15.627322693 -s 4 -d 7 -p cbr -e 532 -c 2 -a 0 -i 38 -k RTR 
- -t 15.627322693 -s 4 -d 7 -p cbr -e 532 -c 2 -a 0 -i 38 -k RTR
h -t 15.627322693 -s 4 -d 7 -p cbr -e 532 -c 2 -a 0 -i 38 -k RTR
+ -t 15.633197360 -s 4 -d 7 -p cbr -e 532 -c 2 -a 0 -i 37 -k RTR 
- -t 15.633197360 -s 4 -d 7 -p cbr -e 532 -c 2 -a 0 -i 37 -k RTR
h -t 15.633197360 -s 4 -d 7 -p cbr -e 532 -c 2 -a 0 -i 37 -k RTR
+ -t 15.639111360 -s 7 -d 6 -p cbr -e 532 -c 2 -a 0 -i 38 -k RTR 
- -t 15.639111360 -s 7 -d 6 -p cbr -e 532 -c 2 -a 0 -i 38 -k RTR
h -t 15.639111360 -s 7 -d 6 -p cbr -e 532 -c 2 -a 0 -i 38 -k RTR
r -t 15.644885360 -s 6 -d 6 -p cbr -e 512 -c 2 -a 0 -i 38 -k AGT
r -t 15.651404302 -s 7 -d 7 -p cbr -e 512 -c 2 -a 0 -i 37 -k AGT
+ -t 15.686992880 -s 1 -d -1 -p cbr -e 512 -c 2 -a 0 -i 39 -k AGT 
- -t 15.686992880 -s 1 -d -1 -p cbr -e 512 -c 2 -a 0 -i 39 -k AGT
h -t 15.686992880 -s 1 -d -1 -p cbr -e 512 -c 2 -a 0 -i 39 -k AGT
+ -t 15.686992880 -s 1 -d 4 -p cbr -e 532 -c 2 -a 0 -i 39 -k RTR 
- -t 15.686992880 -s 1 -d 4 -p cbr -e 532 -c 2 -a 0 -i 39 -k RTR
h -t 15.686992880 -s 1 -d 4 -p cbr -e 532 -c 2 -a 0 -i 39 -k RTR
+ -t 15.692542880 -s 4 -d 7 -p cbr -e 532 -c 2 -a 0 -i 39 -k RTR 
- -t 15.692542880 -s 4 -d 7 -p cbr -e 532 -c 2 -a 0 -i 39 -k RTR
h -t 15.692542880 -s 4 -d 7 -p cbr -e 532 -c 2 -a 0 -i 39 -k RTR
+ -t 15.698696880 -s 7 -d 6 -p cbr -e 532 -c 2 -a 0 -i 39 -k RTR 
- -t 15.698696880 -s 7 -d 6 -p cbr -e 532 -c 2 -a 0 -i 39 -k RTR
h -t 15.698696880 -s 7 -d 6 -p cbr -e 532 -c 2 -a 0 -i 39 -k RTR
r -t 15.704710880 -s 6 -d 6 -p cbr -e 512 -c 2 -a 0 -i 39 -k AGT
+ -t 15.710044087 -s 0 -d -1 -p cbr -e 512 -c 2 -a 0 -i 40 -k AGT 
- -t 15.710044087 -s 0 -d -1 -p cbr -e 512 -c 2 -a 0 -i 40 -k AGT
h -t 15.710044087 -s 0 -d -1 -p cbr -e 512 -c 2 -a 0 -i 40 -k AGT
+ -t 15.710044087 -s 0 -d 1 -p cbr -e 532 -c 2 -a 0 -i 40 -k RTR 
- -t 15.710044087 -s 0 -d 1 -p cbr -e 532 -c 2 -a 0 -i 40 -k RTR
h -t 15.710044087 -s 0 -d 1 -p cbr -e 532 -c 2 -a 0 -i 40 -k RTR
+ -t 15.715754087 -s 1 -d 4 -p cbr -e 532 -c 2 -a 0 -i 40 -k RTR 
- -t 15.715754087 -s 1 -d 4 -p cbr -e 532 -c 2 -a 0 -i 40 -k RTR
h -t 15.715754087 -s 1 -d 4 -p cbr -e 532 -c 2 -a 0 -i 40 -k RTR
+ -t 15.718502508 -s 3 -d -1 -p cbr -e 512 -c 2 -a 0 -i 41 -k AGT 
- -t 15.718502508 -s 3 -d -1 -p cbr -e 512 -c 2 -a 0 -i 41 -k AGT
h -t 15.718502508 -s 3 -d -1 -p cbr -e 512 -c 2 -a 0 -i 41 -k AGT
+ -t 15.718502508 -s 3 -d 4 -p cbr -e 532 -c 2 -a 0 -i 41 -k RTR 
- -t 15.718502508 -s 3 -d 4 -p cbr -e 532 -c 2 -a 0 -i 41 -k RTR
h -t 15.718502508 -s 3 -d 4 -p cbr -e 532 -c 2 -a 0 -i 41 -k RTR
+ -t 15.721508087 -s 4 -d 7 -p cbr -e 532 -c 2 -a 0 -i 40 -k RTR 
- -t 15.721508087 -s 4 -d 7 -p cbr -e 532 -c 2 -a 0 -i 40 -k RTR
h -t 15.721508087 -s 4 -d 7 -p cbr -e 532 -c 2 -a 0 -i 40 -k RTR
+ -t 15.727512363 -s 4 -d 1 -p cbr -e 532 -c 2 -a 0 -i 41 -k RTR 
- -t 15.727512363 -s 4 -d 1 -p cbr -e 532 -c 2 -a 0 -i 41 -k RTR
h -t 15.727512363 -s 4 -d 1 -p cbr -e 532 -c 2 -a 0 -i 41 -k RTR
r -t 15.733246363 -s 7 -d 7 -p cbr -e 512 -c 2 -a 0 -i 40 -k AGT
+ -t 15.739501030 -s 1 -d 2 -p cbr -e 532 -c 2 -a 0 -i 41 -k RTR 
- -t 15.739501030 -s 1 -d 2 -p cbr -e 532 -c 2 -a 0 -i 41 -k RTR
h -t 15.739501030 -s 1 -d 2 -p cbr -e 532 -c 2 -a 0 -i 41 -k RTR
r -t 15.745215030 -s 2 -d 2 -p cbr -e 512 -c 2 -a 0 -i 41 -k AGT
+ -t 15.792097089 -s 0 -d -1 -p cbr -e 512 -c 2 -a 0 -i 42 -k AGT 
- -t 15.792097089 -s 0 -d -1 -p cbr -e 512 -c 2 -a 0 -i 42 -k AGT
h -t 15.792097089 -s 0 -d -1 -p cbr -e 512 -c 2 -a 0 -i 42 -k AGT