Sconfig 0.00000 tap: on snoop: rts? on errs? on
Sconfig 0.00000 salvage: on !bd replies? on
Sconfig 0.00000 grat error: on grat reply: on
Sconfig 0.00000 $reply for props: on ring 0 search: on
Sconfig 0.00000 using MOBICACHE
M 13.00000 5 (500.00, 200.00, 0.00), (132.00, 412.00), 3.00
s 15.000000000 _0_ AGT  --- 0 tcp 40 [0 0 0 0] ------- [0:0 10:0 32 0] [0 0] 0 0
r 15.000000000 _0_ RTR  --- 0 tcp 40 [0 0 0 0] ------- [0:0 10:0 32 0] [0 0] 0 0
s 15.000185341 _0_ RTR  --- 1 DSR 32 [0 0 0 0] ------- [0:255 10:255 32 0] 1 [1 1] [0 1 0 0->0] [0 0 0 0->0]
r 15.001337674 _3_ RTR  --- 1 DSR 32 [0 ffffffff 0 800] ------- [0:255 10:255 32 0] 1 [1 1] [0 1 0 0->0] [0 0 0 0->0]
r 15.001338007 _6_ RTR  --- 1 DSR 32 [0 ffffffff 0 800] ------- [0:255 10:255 32 0] 1 [1 1] [0 1 0 0->0] [0 0 0 0->0]
r 15.001338007 _1_ RTR  --- 1 DSR 32 [0 ffffffff 0 800] ------- [0:255 10:255 32 0] 1 [1 1] [0 1 0 0->0] [0 0 0 0->0]
r 15.001338086 _4_ RTR  --- 1 DSR 32 [0 ffffffff 0 800] ------- [0:255 10:255 32 0] 1 [1 1] [0 1 0 0->0] [0 0 0 0->0]
s 15.048764666 _0_ RTR  --- 2 DSR 32 [0 0 0 0] ------- [0:255 10:255 32 0] 1 [1 2] [0 2 0 0->16] [0 0 0 0->0]
r 15.050057000 _3_ RTR  --- 2 DSR 32 [0 ffffffff 0 800] ------- [0:255 10:255 32 0] 1 [1 2] [0 2 0 0->16] [0 0 0 0->0]
r 15.050057333 _6_ RTR  --- 2 DSR 32 [0 ffffffff 0 800] ------- [0:255 10:255 32 0] 1 [1 2] [0 2 0 0->16] [0 0 0 0->0]
r 15.050057333 _1_ RTR  --- 2 DSR 32 [0 ffffffff 0 800] ------- [0:255 10:255 32 0] 1 [1 2] [0 2 0 0->16] [0 0 0 0->0]
r 15.050057412 _4_ RTR  --- 2 DSR 32 [0 ffffffff 0 800] ------- [0:255 10:255 32 0] 1 [1 2] [0 2 0 0->16] [0 0 0 0->0]
f 15.052475784 _4_ RTR  --- 2 DSR 48 [0 ffffffff 0 800] ------- [0:255 10:255 32 0] 2 [1 2] [0 2 0 0->16] [0 0 0 0->0]
f 15.052921484 _1_ RTR  --- 2 DSR 48 [0 ffffffff 0 800] ------- [0:255 10:255 32 0] 2 [1 2] [0 2 0 0->16] [0 0 0 0->0]
r 15.053796117 _1_ RTR  --- 2 DSR 48 [0 ffffffff 4 800] ------- [0:255 10:255 32 0] 2 [1 2] [0 2 0 0->16] [0 0 0 0->0]
r 15.053796117 _7_ RTR  --- 2 DSR 48 [0 ffffffff 4 800] ------- [0:255 10:255 32 0] 2 [1 2] [0 2 0 0->16] [0 0 0 0->0]
r 15.053796433 _5_ RTR  --- 2 DSR 48 [0 ffffffff 4 800] ------- [0:255 10:255 32 0] 2 [1 2] [0 2 0 0->16] [0 0 0 0->0]
r 15.053796451 _3_ RTR  --- 2 DSR 48 [0 ffffffff 4 800] ------- [0:255 10:255 32 0] 2 [1 2] [0 2 0 0->16] [0 0 0 0->0]
r 15.053796529 _6_ RTR  --- 2 DSR 48 [0 ffffffff 4 800] ------- [0:255 10:255 32 0] 2 [1 2] [0 2 0 0->16] [0 0 0 0->0]
r 15.053796529 _0_ RTR  --- 2 DSR 48 [0 ffffffff 4 800] ------- [0:255 10:255 32 0] 2 [1 2] [0 2 0 0->16] [0 0 0 0->0]
r 15.053796529 _2_ RTR  --- 2 DSR 48 [0 ffffffff 4 800] ------- [0:255 10:255 32 0] 2 [1 2] [0 2 0 0->16] [0 0 0 0->0]
r 15.053796529 _8_ RTR  --- 2 DSR 48 [0 ffffffff 4 800] ------- [0:255 10:255 32 0] 2 [1 2] [0 2 0 0->16] [0 0 0 0->0]
r 15.054966451 _4_ RTR  --- 2 DSR 48 [0 ffffffff 1 800] ------- [0:255 10:255 32 0] 2 [1 2] [0 2 0 0->16] [0 0 0 0->0]
r 15.054966784 _0_ RTR  --- 2 DSR 48 [0 ffffffff 1 800] ------- [0:255 10:255 32 0] 2 [1 2] [0 2 0 0->16] [0 0 0 0->0]
r 15.054966784 _7_ RTR  --- 2 DSR 48 [0 ffffffff 1 800] ------- [0:255 10:255 32 0] 2 [1 2] [0 2 0 0->16] [0 0 0 0->0]
r 15.054966784 _2_ RTR  --- 2 DSR 48 [0 ffffffff 1 800] ------- [0:255 10:255 32 0] 2 [1 2] [0 2 0 0->16] [0 0 0 0->0]
r 15.054966852 _5_ RTR  --- 2 DSR 48 [0 ffffffff 1 800] ------- [0:255 10:255 32 0] 2 [1 2] [0 2 0 0->16] [0 0 0 0->0]
r 15.054966863 _3_ RTR  --- 2 DSR 48 [0 ffffffff 1 800] ------- [0:255 10:255 32 0] 2 [1 2] [0 2 0 0->16] [0 0 0 0->0]
f 15.055459131 _2_ RTR  --- 2 DSR 68 [0 ffffffff 4 800] ------- [0:255 10:255 32 0] 3 [1 2] [0 2 0 0->16] [0 0 0 0->0]
r 15.056979475 _5_ RTR  --- 2 DSR 68 [0 ffffffff 2 800] ------- [0:255 10:255 32 0] 3 [1 2] [0 2 0 0->16] [0 0 0 0->0]
r 15.056979797 _1_ RTR  --- 2 DSR 68 [0 ffffffff 2 800] ------- [0:255 10:255 32 0] 3 [1 2] [0 2 0 0->16] [0 0 0 0->0]
r 15.056979797 _8_ RTR  --- 2 DSR 68 [0 ffffffff 2 800] ------- [0:255 10:255 32 0] 3 [1 2] [0 2 0 0->16] [0 0 0 0->0]
r 15.056979876 _4_ RTR  --- 2 DSR 68 [0 ffffffff 2 800] ------- [0:255 10:255 32 0] 3 [1 2] [0 2 0 0->16] [0 0 0 0->0]
f 15.058106266 _5_ RTR  --- 2 DSR 68 [0 ffffffff 4 800] ------- [0:255 10:255 32 0] 3 [1 2] [0 2 0 0->16] [0 0 0 0->0]
f 15.058524920 _6_ RTR  --- 2 DSR 48 [0 ffffffff 0 800] ------- [0:255 10:255 32 0] 2 [1 2] [0 2 0 0->16] [0 0 0 0->0]
f 15.058794785 _8_ RTR  --- 2 DSR 68 [0 ffffffff 4 800] ------- [0:255 10:255 32 0] 3 [1 2] [0 2 0 0->16] [0 0 0 0->0]
f 15.059144797 _3_ RTR  --- 2 DSR 48 [0 ffffffff 0 800] ------- [0:255 10:255 32 0] 2 [1 2] [0 2 0 0->16] [0 0 0 0->0]
r 15.059566590 _8_ RTR  --- 2 DSR 68 [0 ffffffff 5 800] ------- [0:255 10:255 32 0] 3 [1 2] [0 2 0 0->16] [0 0 0 0->0]
r 15.059566610 _2_ RTR  --- 2 DSR 68 [0 ffffffff 5 800] ------- [0:255 10:255 32 0] 3 [1 2] [0 2 0 0->16] [0 0 0 0->0]
r 15.059566915 _4_ RTR  --- 2 DSR 68 [0 ffffffff 5 800] ------- [0:255 10:255 32 0] 3 [1 2] [0 2 0 0->16] [0 0 0 0->0]
r 15.059566991 _7_ RTR  --- 2 DSR 68 [0 ffffffff 5 800] ------- [0:255 10:255 32 0] 3 [1 2] [0 2 0 0->16] [0 0 0 0->0]
r 15.059567000 _1_ RTR  --- 2 DSR 68 [0 ffffffff 5 800] ------- [0:255 10:255 32 0] 3 [1 2] [0 2 0 0->16] [0 0 0 0->0]
f 15.060030640 _7_ RTR  --- 2 DSR 68 [0 ffffffff 4 800] ------- [0:255 10:255 32 0] 3 [1 2] [0 2 0 0->16] [0 0 0 0->0]
r 15.060656913 _5_ RTR  --- 2 DSR 68 [0 ffffffff 8 800] ------- [0:255 10:255 32 0] 3 [1 2] [0 2 0 0->16] [0 0 0 0->0]
r 15.060657257 _2_ RTR  --- 2 DSR 68 [0 ffffffff 8 800] ------- [0:255 10:255 32 0] 3 [1 2] [0 2 0 0->16] [0 0 0 0->0]
r 15.060657257 _7_ RTR  --- 2 DSR 68 [0 ffffffff 8 800] ------- [0:255 10:255 32 0] 3 [1 2] [0 2 0 0->16] [0 0 0 0->0]
r 15.060657257 _11_ RTR  --- 2 DSR 68 [0 ffffffff 8 800] ------- [0:255 10:255 32 0] 3 [1 2] [0 2 0 0->16] [0 0 0 0->0]
r 15.060657335 _4_ RTR  --- 2 DSR 68 [0 ffffffff 8 800] ------- [0:255 10:255 32 0] 3 [1 2] [0 2 0 0->16] [0 0 0 0->0]
f 15.060794847 _11_ RTR  --- 2 DSR 92 [0 ffffffff 8 800] ------- [0:255 10:255 32 0] 4 [1 2] [0 2 0 0->16] [0 0 0 0->0]
r 15.061987590 _4_ RTR  --- 2 DSR 68 [0 ffffffff 7 800] ------- [0:255 10:255 32 0] 3 [1 2] [0 2 0 0->16] [0 0 0 0->0]
r 15.061987923 _1_ RTR  --- 2 DSR 68 [0 ffffffff 7 800] ------- [0:255 10:255 32 0] 3 [1 2] [0 2 0 0->16] [0 0 0 0->0]
r 15.061987923 _6_ RTR  --- 2 DSR 68 [0 ffffffff 7 800] ------- [0:255 10:255 32 0] 3 [1 2] [0 2 0 0->16] [0 0 0 0->0]
r 15.061987923 _10_ RTR  --- 2 DSR 68 [0 ffffffff 7 800] ------- [0:255 10:255 32 0] 3 [1 2] [0 2 0 0->16] [0 0 0 0->0]
r 15.061987923 _8_ RTR  --- 2 DSR 68 [0 ffffffff 7 800] ------- [0:255 10:255 32 0] 3 [1 2] [0 2 0 0->16] [0 0 0 0->0]
r 15.061987981 _5_ RTR  --- 2 DSR 68 [0 ffffffff 7 800] ------- [0:255 10:255 32 0] 3 [1 2] [0 2 0 0->16] [0 0 0 0->0]
r 15.061988002 _3_ RTR  --- 2 DSR 68 [0 ffffffff 7 800] ------- [0:255 10:255 32 0] 3 [1 2] [0 2 0 0->16] [0 0 0 0->0]
r 15.062938335 _0_ RTR  --- 2 DSR 48 [0 ffffffff 3 800] ------- [0:255 10:255 32 0] 2 [1 2] [0 2 0 0->16] [0 0 0 0->0]
r 15.062938335 _6_ RTR  --- 2 DSR 48 [0 ffffffff 3 800] ------- [0:255 10:255 32 0] 2 [1 2] [0 2 0 0->16] [0 0 0 0->0]
r 15.062938669 _4_ RTR  --- 2 DSR 48 [0 ffffffff 3 800] ------- [0:255 10:255 32 0] 2 [1 2] [0 2 0 0->16] [0 0 0 0->0]
r 15.062938747 _1_ RTR  --- 2 DSR 48 [0 ffffffff 3 800] ------- [0:255 10:255 32 0] 2 [1 2] [0 2 0 0->16] [0 0 0 0->0]
r 15.062938747 _7_ RTR  --- 2 DSR 48 [0 ffffffff 3 800] ------- [0:255 10:255 32 0] 2 [1 2] [0 2 0 0->16] [0 0 0 0->0]
r 15.064546335 _8_ RTR  --- 2 DSR 92 [0 ffffffff b 800] ------- [0:255 10:255 32 0] 4 [1 2] [0 2 0 0->16] [0 0 0 0->0]
r 15.064546335 _10_ RTR  --- 2 DSR 92 [0 ffffffff b 800] ------- [0:255 10:255 32 0] 4 [1 2] [0 2 0 0->16] [0 0 0 0->0]
r 15.065801493 _3_ RTR  --- 2 DSR 48 [0 ffffffff 6 800] ------- [0:255 10:255 32 0] 2 [1 2] [0 2 0 0->16] [0 0 0 0->0]
r 15.065801826 _0_ RTR  --- 2 DSR 48 [0 ffffffff 6 800] ------- [0:255 10:255 32 0] 2 [1 2] [0 2 0 0->16] [0 0 0 0->0]
r 15.065801826 _9_ RTR  --- 2 DSR 48 [0 ffffffff 6 800] ------- [0:255 10:255 32 0] 2 [1 2] [0 2 0 0->16] [0 0 0 0->0]
r 15.065801826 _7_ RTR  --- 2 DSR 48 [0 ffffffff 6 800] ------- [0:255 10:255 32 0] 2 [1 2] [0 2 0 0->16] [0 0 0 0->0]
r 15.065801905 _4_ RTR  --- 2 DSR 48 [0 ffffffff 6 800] ------- [0:255 10:255 32 0] 2 [1 2] [0 2 0 0->16] [0 0 0 0->0]
s 15.066717616 _10_ RTR  --- 3 DSR 60 [0 0 0 0] ------- [10:255 0:255 254 7] 4 [0 2] [1 2 4 0->10] [0 0 0 0->0]
r 15.068471616 _7_ RTR  --- 3 DSR 60 [13a 7 a 800] ------- [10:255 0:255 254 7] 4 [0 2] [1 2 4 0->10] [0 0 0 0->0]
f 15.068471616 _7_ RTR  --- 3 DSR 60 [13a 7 a 800] ------- [10:255 0:255 253 4] 4 [0 2] [1 2 4 0->10] [0 0 0 0->0]
r 15.070588616 _4_ RTR  --- 3 DSR 60 [13a 4 7 800] ------- [10:255 0:255 253 4] 4 [0 2] [1 2 4 0->10] [0 0 0 0->0]
f 15.070588616 _4_ RTR  --- 3 DSR 60 [13a 4 7 800] ------- [10:255 0:255 252 0] 4 [0 2] [1 2 4 0->10] [0 0 0 0->0]
r 15.072586853 _0_ RTR  --- 3 DSR 60 [13a 0 4 800] ------- [10:255 0:255 252 0] 4 [0 2] [1 2 4 0->10] [0 0 0 0->0]
SFESTs 15.072586853 _0_ 0 [0 -> 10] 1(1) to 4 [0 |4 7 10 ]
s 15.072586853 _0_ RTR  --- 0 tcp 84 [0 0 0 0] ------- [0:0 10:0 32 4] [0 0] 0 0
f 15.073349422 _9_ RTR  --- 2 DSR 68 [0 ffffffff 6 800] ------- [0:255 10:255 32 0] 3 [1 2] [0 2 0 0->16] [0 0 0 0->0]
s 15.073636301 _10_ RTR  --- 4 DSR 68 [0 0 0 0] ------- [10:255 0:255 254 11] 5 [0 2] [1 2 5 0->10] [0 0 0 0->0]
r 15.074737089 _4_ RTR  --- 0 tcp 84 [13a 4 0 800] ------- [0:0 10:0 32 4] [0 0] 1 0
f 15.074737089 _4_ RTR  --- 0 tcp 84 [13a 4 0 800] ------- [0:0 10:0 31 7] [0 0] 1 0
r 15.077426089 _7_ RTR  --- 0 tcp 84 [13a 7 4 800] ------- [0:0 10:0 31 7] [0 0] 2 0
f 15.077426089 _7_ RTR  --- 0 tcp 84 [13a 7 4 800] ------- [0:0 10:0 30 10] [0 0] 2 0
r 15.079596089 _10_ RTR  --- 0 tcp 84 [13a a 7 800] ------- [0:0 10:0 30 10] [0 0] 3 0
r 15.079596089 _10_ AGT  --- 0 tcp 40 [13a a 7 800] ------- [0:0 10:0 30 10] [0 0] 3 0
s 15.079596089 _10_ AGT  --- 5 ack 40 [0 0 0 0] ------- [10:0 0:0 32 0] [0 0] 0 0
r 15.079596089 _10_ RTR  --- 5 ack 40 [0 0 0 0] ------- [10:0 0:0 32 0] [0 0] 0 0
SFESTs 15.079596089 _10_ 5 [10 -> 0] 1(1) to 7 [10 |7 4 0 ]
s 15.079596089 _10_ RTR  --- 5 ack 84 [0 0 0 0] ------- [10:0 0:0 32 7] [0 0] 0 0
r 15.081738089 _11_ RTR  --- 4 DSR 68 [13a b a 800] ------- [10:255 0:255 254 11] 5 [0 2] [1 2 5 0->10] [0 0 0 0->0]
f 15.081738089 _11_ RTR  --- 4 DSR 68 [13a b a 800] ------- [10:255 0:255 253 8] 5 [0 2] [1 2 5 0->10] [0 0 0 0->0]
r 15.083900089 _8_ RTR  --- 4 DSR 68 [13a 8 b 800] ------- [10:255 0:255 253 8] 5 [0 2] [1 2 5 0->10] [0 0 0 0->0]
f 15.083900089 _8_ RTR  --- 4 DSR 68 [13a 8 b 800] ------- [10:255 0:255 252 4] 5 [0 2] [1 2 5 0->10] [0 0 0 0->0]
r 15.085982325 _4_ RTR  --- 4 DSR 68 [13a 4 8 800] ------- [10:255 0:255 252 4] 5 [0 2] [1 2 5 0->10] [0 0 0 0->0]
f 15.085982325 _4_ RTR  --- 4 DSR 68 [13a 4 8 800] ------- [10:255 0:255 251 0] 5 [0 2] [1 2 5 0->10] [0 0 0 0->0]
r 15.088024561 _0_ RTR  --- 4 DSR 68 [13a 0 4 800] ------- [10:255 0:255 251 0] 5 [0 2] [1 2 5 0->10] [0 0 0 0->0]
r 15.089954561 _6_ RTR  --- 2 DSR 68 [0 ffffffff 9 800] ------- [0:255 10:255 32 0] 3 [1 2] [0 2 0 0->16] [0 0 0 0->0]
r 15.089954561 _10_ RTR  --- 2 DSR 68 [0 ffffffff 9 800] ------- [0:255 10:255 32 0] 3 [1 2] [0 2 0 0->16] [0 0 0 0->0]
r 15.091910561 _7_ RTR  --- 5 ack 84 [13a 7 a 800] ------- [10:0 0:0 32 7] [0 0] 1 0
f 15.091910561 _7_ RTR  --- 5 ack 84 [13a 7 a 800] ------- [10:0 0:0 31 4] [0 0] 1 0
r 15.094219561 _4_ RTR  --- 5 ack 84 [13a 4 7 800] ------- [10:0 0:0 31 4] [0 0] 2 0
f 15.094219561 _4_ RTR  --- 5 ack 84 [13a 4 7 800] ------- [10:0 0:0 30 0] [0 0] 2 0
r 15.096489797 _0_ RTR  --- 5 ack 84 [13a 0 4 800] ------- [10:0 0:0 30 0] [0 0] 3 0
r 15.096489797 _0_ AGT  --- 5 ack 40 [13a 0 4 800] ------- [10:0 0:0 30 0] [0 0] 3 0
s 15.096489797 _0_ AGT  --- 7 tcp 1040 [0 0 0 0] ------- [0:0 10:0 32 0] [1 0] 0 0
r 15.096489797 _0_ RTR  --- 7 tcp 1040 [0 0 0 0] ------- [0:0 10:0 32 0] [1 0] 0 0
SFESTs 15.096489797 _0_ 7 [0 -> 10] 1(1) to 4 [0 |4 7 10 ]
s 15.096489797 _0_ AGT  --- 8 tcp 1040 [0 0 0 0] ------- [0:0 10:0 32 0] [2 0] 0 0
r 15.096489797 _0_ RTR  --- 8 tcp 1040 [0 0 0 0] ------- [0:0 10:0 32 0] [2 0] 0 0
SFESTs 15.096489797 _0_ 8 [0 -> 10] 1(1) to 4 [0 |4 7 10 ]
s 15.096489797 _0_ RTR  --- 7 tcp 1084 [0 0 0 0] ------- [0:0 10:0 32 4] [1 0] 0 0
s 15.096489797 _0_ RTR  --- 8 tcp 1084 [0 0 0 0] ------- [0:0 10:0 32 4] [2 0] 0 0
s 15.098434324 _10_ RTR  --- 6 DSR 60 [0 0 0 0] ------- [10:255 0:255 254 9] 4 [0 2] [1 2 4 0->10] [0 0 0 0->0]
r 15.106980033 _4_ RTR  --- 7 tcp 1084 [13a 4 0 800] ------- [0:0 10:0 32 4] [1 0] 1 0
f 15.106980033 _4_ RTR  --- 7 tcp 1084 [13a 4 0 800] ------- [0:0 10:0 31 7] [1 0] 1 0
r 15.117191014 _4_ RTR  --- 8 tcp 1084 [13a 4 0 800] ------- [0:0 10:0 32 4] [2 0] 1 0
f 15.117191014 _4_ RTR  --- 8 tcp 1084 [13a 4 0 800] ------- [0:0 10:0 31 7] [2 0] 1 0
r 15.127540014 _7_ RTR  --- 7 tcp 1084 [13a 7 4 800] ------- [0:0 10:0 31 7] [1 0] 2 0
f 15.127540014 _7_ RTR  --- 7 tcp 1084 [13a 7 4 800] ------- [0:0 10:0 30 10] [1 0] 2 0
r 15.137709348 _7_ RTR  --- 8 tcp 1084 [13a 7 4 800] ------- [0:0 10:0 31 7] [2 0] 2 0
f 15.137709348 _7_ RTR  --- 8 tcp 1084 [13a 7 4 800] ------- [0:0 10:0 30 10] [2 0] 2 0
r 15.139758014 _9_ RTR  --- 6 DSR 60 [13a 9 a 800] ------- [10:255 0:255 254 9] 4 [0 2] [1 2 4 0->10] [0 0 0 0->0]
f 15.139758014 _9_ RTR  --- 6 DSR 60 [13a 9 a 800] ------- [10:255 0:255 253 6] 4 [0 2] [1 2 4 0->10] [0 0 0 0->0]
r 15.141956014 _6_ RTR  --- 6 DSR 60 [13a 6 9 800] ------- [10:255 0:255 253 6] 4 [0 2] [1 2 4 0->10] [0 0 0 0->0]
f 15.141956014 _6_ RTR  --- 6 DSR 60 [13a 6 9 800] ------- [10:255 0:255 252 0] 4 [0 2] [1 2 4 0->10] [0 0 0 0->0]
r 15.144214014 _0_ RTR  --- 6 DSR 60 [13a 0 6 800] ------- [10:255 0:255 252 0] 4 [0 2] [1 2 4 0->10] [0 0 0 0->0]
r 15.154848957 _10_ RTR  --- 7 tcp 1084 [13a a 7 800] ------- [0:0 10:0 30 10] [1 0] 3 0
r 15.154848957 _10_ AGT  --- 7 tcp 1040 [13a a 7 800] ------- [0:0 10:0 30 10] [1 0] 3 0
s 15.154848957 _10_ AGT  --- 9 ack 40 [0 0 0 0] ------- [10:0 0:0 32 0] [1 0] 0 0
r 15.154848957 _10_ RTR  --- 9 ack 40 [0 0 0 0] ------- [10:0 0:0 32 0] [1 0] 0 0
SFESTs 15.154848957 _10_ 9 [10 -> 0] 1(1) to 7 [10 |7 4 0 ]
s 15.154848957 _10_ RTR  --- 9 ack 84 [0 0 0 0] ------- [10:0 0:0 32 7] [1 0] 0 0
r 15.165219624 _10_ RTR  --- 8 tcp 1084 [13a a 7 800] ------- [0:0 10:0 30 10] [2 0] 3 0
r 15.165219624 _10_ AGT  --- 8 tcp 1040 [13a a 7 800] ------- [0:0 10:0 30 10] [2 0] 3 0
s 15.165219624 _10_ AGT  --- 10 ack 40 [0 0 0 0] ------- [10:0 0:0 32 0] [2 0] 0 0
r 15.165219624 _10_ RTR  --- 10 ack 40 [0 0 0 0] ------- [10:0 0:0 32 0] [2 0] 0 0
SFESTs 15.165219624 _10_ 10 [10 -> 0] 1(1) to 7 [10 |7 4 0 ]
s 15.165219624 _10_ RTR  --- 10 ack 84 [0 0 0 0] ------- [10:0 0:0 32 7] [2 0] 0 0
r 15.167529624 _7_ RTR  --- 9 ack 84 [13a 7 a 800] ------- [10:0 0:0 32 7] [1 0] 1 0
f 15.167529624 _7_ RTR  --- 9 ack 84 [13a 7 a 800] ------- [10:0 0:0 31 4] [1 0] 1 0
r 15.170100290 _7_ RTR  --- 10 ack 84 [13a 7 a 800] ------- [10:0 0:0 32 7] [2 0] 1 0
f 15.170100290 _7_ RTR  --- 10 ack 84 [13a 7 a 800] ------- [10:0 0:0 31 4] [2 0] 1 0
r 15.172369290 _4_ RTR  --- 9 ack 84 [13a 4 7 800] ------- [10:0 0:0 31 4] [1 0] 2 0
f 15.172369290 _4_ RTR  --- 9 ack 84 [13a 4 7 800] ------- [10:0 0:0 30 0] [1 0] 2 0
r 15.174879527 _0_ RTR  --- 9 ack 84 [13a 0 4 800] ------- [10:0 0:0 30 0] [1 0] 3 0
r 15.174879527 _0_ AGT  --- 9 ack 40 [13a 0 4 800] ------- [10:0 0:0 30 0] [1 0] 3 0
s 15.174879527 _0_ AGT  --- 11 tcp 1040 [0 0 0 0] ------- [0:0 10:0 32 0] [3 0] 0 0
r 15.174879527 _0_ RTR  --- 11 tcp 1040 [0 0 0 0] ------- [0:0 10:0 32 0] [3 0] 0 0
SFs 15.174879527 _0_ 11 [0 -> 10] 1(0) to 4 
s 15.174879527 _0_ AGT  --- 12 tcp 1040 [0 0 0 0] ------- [0:0 10:0 32 0] [4 0] 0 0
r 15.174879527 _0_ RTR  --- 12 tcp 1040 [0 0 0 0] ------- [0:0 10:0 32 0] [4 0] 0 0
SFs 15.174879527 _0_ 12 [0 -> 10] 1(0) to 4 
s 15.174879527 _0_ RTR  --- 11 tcp 1060 [0 0 0 0] ------- [0:0 10:0 32 4] [3 0] 0 0
s 15.174879527 _0_ RTR  --- 12 tcp 1060 [0 0 0 0] ------- [0:0 10:0 32 4] [4 0] 0 0
r 15.184897763 _4_ RTR  --- 11 tcp 1060 [13a 4 0 800] ------- [0:0 10:0 32 4] [3 0] 1 0
SFf 15.184897763 _4_ 11 [0 -> 10] 1 to 7
f 15.184897763 _4_ RTR  --- 11 tcp 1060 [13a 4 0 800] ------- [0:0 10:0 31 7] [3 0] 1 0
r 15.187196960 _4_ RTR  --- 10 ack 84 [13a 4 7 800] ------- [10:0 0:0 31 4] [2 0] 2 0
f 15.187196960 _4_ RTR  --- 10 ack 84 [13a 4 7 800] ------- [10:0 0:0 30 0] [2 0] 2 0
r 15.197453960 _7_ RTR  --- 11 tcp 1060 [13a 7 4 800] ------- [0:0 10:0 31 7] [3 0] 2 0
SFf 15.197453960 _7_ 11 [0 -> 10] 1 to 10
f 15.197453960 _7_ RTR  --- 11 tcp 1060 [13a 7 4 800] ------- [0:0 10:0 30 10] [3 0] 2 0
r 15.207411960 _10_ RTR  --- 11 tcp 1060 [13a a 7 800] ------- [0:0 10:0 30 10] [3 0] 3 0
r 15.207411960 _10_ AGT  --- 11 tcp 1040 [13a a 7 800] ------- [0:0 10:0 30 10] [3 0] 3 0
s 15.207411960 _10_ AGT  --- 13 ack 40 [0 0 0 0] ------- [10:0 0:0 32 0] [3 0] 0 0
r 15.207411960 _10_ RTR  --- 13 ack 40 [0 0 0 0] ------- [10:0 0:0 32 0] [3 0] 0 0
SFs 15.207411960 _10_ 13 [10 -> 0] 1(0) to 7 
s 15.207411960 _10_ RTR  --- 13 ack 60 [0 0 0 0] ------- [10:0 0:0 32 7] [3 0] 0 0
r 15.209449960 _7_ RTR  --- 13 ack 60 [13a 7 a 800] ------- [10:0 0:0 32 7] [3 0] 1 0
SFf 15.209449960 _7_ 13 [10 -> 0] 1 to 4
f 15.209449960 _7_ RTR  --- 13 ack 60 [13a 7 a 800] ------- [10:0 0:0 31 4] [3 0] 1 0
r 15.211670529 _0_ RTR  --- 10 ack 84 [13a 0 4 800] ------- [10:0 0:0 30 0] [2 0] 3 0
r 15.211670529 _0_ AGT  --- 10 ack 40 [13a 0 4 800] ------- [10:0 0:0 30 0] [2 0] 3 0
s 15.211670529 _0_ AGT  --- 14 tcp 1040 [0 0 0 0] ------- [0:0 10:0 32 0] [5 0] 0 0
r 15.211670529 _0_ RTR  --- 14 tcp 1040 [0 0 0 0] ------- [0:0 10:0 32 0] [5 0] 0 0
SFs 15.211670529 _0_ 14 [0 -> 10] 1(0) to 4 
s 15.211670529 _0_ AGT  --- 15 tcp 1040 [0 0 0 0] ------- [0:0 10:0 32 0] [6 0] 0 0
r 15.211670529 _0_ RTR  --- 15 tcp 1040 [0 0 0 0] ------- [0:0 10:0 32 0] [6 0] 0 0
SFs 15.211670529 _0_ 15 [0 -> 10] 1(0) to 4 
s 15.211670529 _0_ RTR  --- 14 tcp 1060 [0 0 0 0] ------- [0:0 10:0 32 4] [5 0] 0 0
s 15.211670529 _0_ RTR  --- 15 tcp 1060 [0 0 0 0] ------- [0:0 10:0 32 4] [6 0] 0 0
r 15.221668765 _4_ RTR  --- 12 tcp 1060 [13a 4 0 800] ------- [0:0 10:0 32 4] [4 0] 1 0
SFf 15.221668765 _4_ 12 [0 -> 10] 1 to 7
f 15.221668765 _4_ RTR  --- 12 tcp 1060 [13a 4 0 800] ------- [0:0 10:0 31 7] [4 0] 1 0
r 15.231647747 _4_ RTR  --- 14 tcp 1060 [13a 4 0 800] ------- [0:0 10:0 32 4] [5 0] 1 0
SFf 15.231647747 _4_ 14 [0 -> 10] 1 to 7
f 15.231647747 _4_ RTR  --- 14 tcp 1060 [13a 4 0 800] ------- [0:0 10:0 31 7] [5 0] 1 0
r 15.241644747 _7_ RTR  --- 12 tcp 1060 [13a 7 4 800] ------- [0:0 10:0 31 7] [4 0] 2 0
SFf 15.241644747 _7_ 12 [0 -> 10] 1 to 10
f 15.241644747 _7_ RTR  --- 12 tcp 1060 [13a 7 4 800] ------- [0:0 10:0 30 10] [4 0] 2 0
r 15.243841747 _4_ RTR  --- 13 ack 60 [13a 4 7 800] ------- [10:0 0:0 31 4] [3 0] 2 0
SFf 15.243841747 _4_ 13 [10 -> 0] 1 to 0
f 15.243841747 _4_ RTR  --- 13 ack 60 [13a 4 7 800] ------- [10:0 0:0 30 0] [3 0] 2 0
r 15.253890592 _4_ RTR  --- 15 tcp 1060 [13a 4 0 800] ------- [0:0 10:0 32 4] [6 0] 1 0
SFf 15.253890592 _4_ 15 [0 -> 10] 1 to 7
f 15.253890592 _4_ RTR  --- 15 tcp 1060 [13a 4 0 800] ------- [0:0 10:0 31 7] [6 0] 1 0
r 15.263847592 _7_ RTR  --- 14 tcp 1060 [13a 7 4 800] ------- [0:0 10:0 31 7] [5 0] 2 0
SFf 15.263847592 _7_ 14 [0 -> 10] 1 to 10
f 15.263847592 _7_ RTR  --- 14 tcp 1060 [13a 7 4 800] ------- [0:0 10:0 30 10] [5 0] 2 0
r 15.274065592 _10_ RTR  --- 12 tcp 1060 [13a a 7 800] ------- [0:0 10:0 30 10] [4 0] 3 0
r 15.274065592 _10_ AGT  --- 12 tcp 1040 [13a a 7 800] ------- [0:0 10:0 30 10] [4 0] 3 0
s 15.274065592 _10_ AGT  --- 16 ack 40 [0 0 0 0] ------- [10:0 0:0 32 0] [4 0] 0 0
r 15.274065592 _10_ RTR  --- 16 ack 40 [0 0 0 0] ------- [10:0 0:0 32 0] [4 0] 0 0
SFs 15.274065592 _10_ 16 [10 -> 0] 1(0) to 7 
s 15.274065592 _10_ RTR  --- 16 ack 60 [0 0 0 0] ------- [10:0 0:0 32 7] [4 0] 0 0
r 15.276083592 _7_ RTR  --- 16 ack 60 [13a 7 a 800] ------- [10:0 0:0 32 7] [4 0] 1 0
SFf 15.276083592 _7_ 16 [10 -> 0] 1 to 4
f 15.276083592 _7_ RTR  --- 16 ack 60 [13a 7 a 800] ------- [10:0 0:0 31 4] [4 0] 1 0
r 15.278172162 _0_ RTR  --- 13 ack 60 [13a 0 4 800] ------- [10:0 0:0 30 0] [3 0] 3 0
r 15.278172162 _0_ AGT  --- 13 ack 40 [13a 0 4 800] ------- [10:0 0:0 30 0] [3 0] 3 0
s 15.278172162 _0_ AGT  --- 17 tcp 1040 [0 0 0 0] ------- [0:0 10:0 32 0] [7 0] 0 0
r 15.278172162 _0_ RTR  --- 17 tcp 1040 [0 0 0 0] ------- [0:0 10:0 32 0] [7 0] 0 0
SFs 15.278172162 _0_ 17 [0 -> 10] 1(0) to 4 
s 15.278172162 _0_ AGT  --- 18 tcp 1040 [0 0 0 0] ------- [0:0 10:0 32 0] [8 0] 0 0
r 15.278172162 _0_ RTR  --- 18 tcp 1040 [0 0 0 0] ------- [0:0 10:0 32 0] [8 0] 0 0
SFs 15.278172162 _0_ 18 [0 -> 10] 1(0) to 4 
s 15.278172162 _0_ RTR  --- 17 tcp 1060 [0 0 0 0] ------- [0:0 10:0 32 4] [7 0] 0 0
s 15.278172162 _0_ RTR  --- 18 tcp 1060 [0 0 0 0] ------- [0:0 10:0 32 4] [8 0] 0 0
r 15.288449907 _7_ RTR  --- 15 tcp 1060 [13a 7 4 800] ------- [0:0 10:0 31 7] [6 0] 2 0
SFf 15.288449907 _7_ 15 [0 -> 10] 1 to 10
f 15.288449907 _7_ RTR  --- 15 tcp 1060 [13a 7 4 800] ------- [0:0 10:0 30 10] [6 0] 2 0
r 15.298587907 _10_ RTR  --- 14 tcp 1060 [13a a 7 800] ------- [0:0 10:0 30 10] [5 0] 3 0
r 15.298587907 _10_ AGT  --- 14 tcp 1040 [13a a 7 800] ------- [0:0 10:0 30 10] [5 0] 3 0
s 15.298587907 _10_ AGT  --- 19 ack 40 [0 0 0 0] ------- [10:0 0:0 32 0] [5 0] 0 0
r 15.298587907 _10_ RTR  --- 19 ack 40 [0 0 0 0] ------- [10:0 0:0 32 0] [5 0] 0 0
SFs 15.298587907 _10_ 19 [10 -> 0] 1(0) to 7 
s 15.298587907 _10_ RTR  --- 19 ack 60 [0 0 0 0] ------- [10:0 0:0 32 7] [5 0] 0 0
r 15.300605907 _7_ RTR  --- 19 ack 60 [13a 7 a 800] ------- [10:0 0:0 32 7] [5 0] 1 0
SFf 15.300605907 _7_ 19 [10 -> 0] 1 to 4
f 15.300605907 _7_ RTR  --- 19 ack 60 [13a 7 a 800] ------- [10:0 0:0 31 4] [5 0] 1 0
r 15.303042907 _4_ RTR  --- 16 ack 60 [13a 4 7 800] ------- [10:0 0:0 31 4] [4 0] 2 0
SFf 15.303042907 _4_ 16 [10 -> 0] 1 to 0
f 15.303042907 _4_ RTR  --- 16 ack 60 [13a 4 7 800] ------- [10:0 0:0 30 0] [4 0] 2 0
r 15.313171753 _4_ RTR  --- 17 tcp 1060 [13a 4 0 800] ------- [0:0 10:0 32 4] [7 0] 1 0
SFf 15.313171753 _4_ 17 [0 -> 10] 1 to 7
f 15.313171753 _4_ RTR  --- 17 tcp 1060 [13a 4 0 800] ------- [0:0 10:0 31 7] [7 0] 1 0
r 15.315149989 _0_ RTR  --- 16 ack 60 [13a 0 4 800] ------- [10:0 0:0 30 0] [4 0] 3 0
r 15.315149989 _0_ AGT  --- 16 ack 40 [13a 0 4 800] ------- [10:0 0:0 30 0] [4 0] 3 0
s 15.315149989 _0_ AGT  --- 20 tcp 1040 [0 0 0 0] ------- [0:0 10:0 32 0] [9 0] 0 0
r 15.315149989 _0_ RTR  --- 20 tcp 1040 [0 0 0 0] ------- [0:0 10:0 32 0] [9 0] 0 0
SFs 15.315149989 _0_ 20 [0 -> 10] 1(0) to 4 
s 15.315149989 _0_ AGT  --- 21 tcp 1040 [0 0 0 0] ------- [0:0 10:0 32 0] [10 0] 0 0
r 15.315149989 _0_ RTR  --- 21 tcp 1040 [0 0 0 0] ------- [0:0 10:0 32 0] [10 0] 0 0
SFs 15.315149989 _0_ 21 [0 -> 10] 1(0) to 4 
s 15.315149989 _0_ RTR  --- 20 tcp 1060 [0 0 0 0] ------- [0:0 10:0 32 4] [9 0] 0 0
s 15.315149989 _0_ RTR  --- 21 tcp 1060 [0 0 0 0] ------- [0:0 10:0 32 4] [10 0] 0 0
r 15.325087734 _7_ RTR  --- 17 tcp 1060 [13a 7 4 800] ------- [0:0 10:0 31 7] [7 0] 2 0
SFf 15.325087734 _7_ 17 [0 -> 10] 1 to 10
f 15.325087734 _7_ RTR  --- 17 tcp 1060 [13a 7 4 800] ------- [0:0 10:0 30 10] [7 0] 2 0
r 15.335205734 _10_ RTR  --- 15 tcp 1060 [13a a 7 800] ------- [0:0 10:0 30 10] [6 0] 3 0
r 15.335205734 _10_ AGT  --- 15 tcp 1040 [13a a 7 800] ------- [0:0 10:0 30 10] [6 0] 3 0
s 15.335205734 _10_ AGT  --- 22 ack 40 [0 0 0 0] ------- [10:0 0:0 32 0] [6 0] 0 0
r 15.335205734 _10_ RTR  --- 22 ack 40 [0 0 0 0] ------- [10:0 0:0 32 0] [6 0] 0 0
SFs 15.335205734 _10_ 22 [10 -> 0] 1(0) to 7 
s 15.335205734 _10_ RTR  --- 22 ack 60 [0 0 0 0] ------- [10:0 0:0 32 7] [6 0] 0 0
r 15.337163401 _4_ RTR  --- 19 ack 60 [13a 4 7 800] ------- [10:0 0:0 31 4] [5 0] 2 0
SFf 15.337163401 _4_ 19 [10 -> 0] 1 to 0
f 15.337163401 _4_ RTR  --- 19 ack 60 [13a 4 7 800] ------- [10:0 0:0 30 0] [5 0] 2 0
r 15.339121637 _0_ RTR  --- 19 ack 60 [13a 0 4 800] ------- [10:0 0:0 30 0] [5 0] 3 0
r 15.339121637 _0_ AGT  --- 19 ack 40 [13a 0 4 800] ------- [10:0 0:0 30 0] [5 0] 3 0
s 15.339121637 _0_ AGT  --- 23 tcp 1040 [0 0 0 0] ------- [0:0 10:0 32 0] [11 0] 0 0
r 15.339121637 _0_ RTR  --- 23 tcp 1040 [0 0 0 0] ------- [0:0 10:0 32 0] [11 0] 0 0
SFs 15.339121637 _0_ 23 [0 -> 10] 1(0) to 4 
s 15.339121637 _0_ AGT  --- 24 tcp 1040 [0 0 0 0] ------- [0:0 10:0 32 0] [12 0] 0 0
r 15.339121637 _0_ RTR  --- 24 tcp 1040 [0 0 0 0] ------- [0:0 10:0 32 0] [12 0] 0 0
SFs 15.339121637 _0_ 24 [0 -> 10] 1(0) to 4 
s 15.339121637 _0_ RTR  --- 23 tcp 1060 [0 0 0 0] ------- [0:0 10:0 32 4] [11 0] 0 0
s 15.339121637 _0_ RTR  --- 24 tcp 1060 [0 0 0 0] ------- [0:0 10:0 32 4] [12 0] 0 0
r 15.349199873 _4_ RTR  --- 18 tcp 1060 [13a 4 0 800] ------- [0:0 10:0 32 4] [8 0] 1 0
SFf 15.349199873 _4_ 18 [0 -> 10] 1 to 7
f 15.349199873 _4_ RTR  --- 18 tcp 1060 [13a 4 0 800] ------- [0:0 10:0 31 7] [8 0] 1 0
r 15.359218854 _4_ RTR  --- 20 tcp 1060 [13a 4 0 800] ------- [0:0 10:0 32 4] [9 0] 1 0
SFf 15.359218854 _4_ 20 [0 -> 10] 1 to 7
f 15.359218854 _4_ RTR  --- 20 tcp 1060 [13a 4 0 800] ------- [0:0 10:0 31 7] [9 0] 1 0
r 15.369535854 _7_ RTR  --- 18 tcp 1060 [13a 7 4 800] ------- [0:0 10:0 31 7] [8 0] 2 0
SFf 15.369535854 _7_ 18 [0 -> 10] 1 to 10
f 15.369535854 _7_ RTR  --- 18 tcp 1060 [13a 7 4 800] ------- [0:0 10:0 30 10] [8 0] 2 0
r 15.379493854 _10_ RTR  --- 17 tcp 1060 [13a a 7 800] ------- [0:0 10:0 30 10] [7 0] 3 0
r 15.379493854 _10_ AGT  --- 17 tcp 1040 [13a a 7 800] ------- [0:0 10:0 30 10] [7 0] 3 0
s 15.379493854 _10_ AGT  --- 25 ack 40 [0 0 0 0] ------- [10:0 0:0 32 0] [7 0] 0 0
r 15.379493854 _10_ RTR  --- 25 ack 40 [0 0 0 0] ------- [10:0 0:0 32 0] [7 0] 0 0
SFs 15.379493854 _10_ 25 [10 -> 0] 1(0) to 7 
s 15.379493854 _10_ RTR  --- 25 ack 60 [0 0 0 0] ------- [10:0 0:0 32 7] [7 0] 0 0
r 15.381451854 _7_ RTR  --- 22 ack 60 [13a 7 a 800] ------- [10:0 0:0 32 7] [6 0] 1 0
SFf 15.381451854 _7_ 22 [10 -> 0] 1 to 4
f 15.381451854 _7_ RTR  --- 22 ack 60 [13a 7 a 800] ------- [10:0 0:0 31 4] [6 0] 1 0
r 15.391669854 _10_ RTR  --- 18 tcp 1060 [13a a 7 800] ------- [0:0 10:0 30 10] [8 0] 3 0
r 15.391669854 _10_ AGT  --- 18 tcp 1040 [13a a 7 800] ------- [0:0 10:0 30 10] [8 0] 3 0
s 15.391669854 _10_ AGT  --- 26 ack 40 [0 0 0 0] ------- [10:0 0:0 32 0] [8 0] 0 0
r 15.391669854 _10_ RTR  --- 26 ack 40 [0 0 0 0] ------- [10:0 0:0 32 0] [8 0] 0 0
SFs 15.391669854 _10_ 26 [10 -> 0] 1(0) to 7 
s 15.391669854 _10_ RTR  --- 26 ack 60 [0 0 0 0] ------- [10:0 0:0 32 7] [8 0] 0 0
r 15.393687854 _7_ RTR  --- 25 ack 60 [13a 7 a 800] ------- [10:0 0:0 32 7] [7 0] 1 0
SFf 15.393687854 _7_ 25 [10 -> 0] 1 to 4
f 15.393687854 _7_ RTR  --- 25 ack 60 [13a 7 a 800] ------- [10:0 0:0 31 4] [7 0] 1 0
r 15.395926521 _7_ RTR  --- 26 ack 60 [13a 7 a 800] ------- [10:0 0:0 32 7] [8 0] 1 0
SFf 15.395926521 _7_ 26 [10 -> 0] 1 to 4
f 15.395926521 _7_ RTR  --- 26 ack 60 [13a 7 a 800] ------- [10:0 0:0 31 4] [8 0] 1 0
r 15.397943521 _4_ RTR  --- 22 ack 60 [13a 4 7 800] ------- [10:0 0:0 31 4] [6 0] 2 0
SFf 15.397943521 _4_ 22 [10 -> 0] 1 to 0
f 15.397943521 _4_ RTR  --- 22 ack 60 [13a 4 7 800] ------- [10:0 0:0 30 0] [6 0] 2 0
r 15.399940854 _4_ RTR  --- 25 ack 60 [13a 4 7 800] ------- [10:0 0:0 31 4] [7 0] 2 0
SFf 15.399940854 _4_ 25 [10 -> 0] 1 to 0
f 15.399940854 _4_ RTR  --- 25 ack 60 [13a 4 7 800] ------- [10:0 0:0 30 0] [7 0] 2 0
r 15.409937854 _7_ RTR  --- 20 tcp 1060 [13a 7 4 800] ------- [0:0 10:0 31 7] [9 0] 2 0
SFf 15.409937854 _7_ 20 [0 -> 10] 1 to 10
f 15.409937854 _7_ RTR  --- 20 tcp 1060 [13a 7 4 800] ------- [0:0 10:0 30 10] [9 0] 2 0
r 15.411896424 _0_ RTR  --- 22 ack 60 [13a 0 4 800] ------- [10:0 0:0 30 0] [6 0] 3 0
r 15.411896424 _0_ AGT  --- 22 ack 40 [13a 0 4 800] ------- [10:0 0:0 30 0] [6 0] 3 0
s 15.411896424 _0_ AGT  --- 27 tcp 1040 [0 0 0 0] ------- [0:0 10:0 32 0] [13 0] 0 0
r 15.411896424 _0_ RTR  --- 27 tcp 1040 [0 0 0 0] ------- [0:0 10:0 32 0] [13 0] 0 0
SFs 15.411896424 _0_ 27 [0 -> 10] 1(0) to 4 
s 15.411896424 _0_ AGT  --- 28 tcp 1040 [0 0 0 0] ------- [0:0 10:0 32 0] [14 0] 0 0
r 15.411896424 _0_ RTR  --- 28 tcp 1040 [0 0 0 0] ------- [0:0 10:0 32 0] [14 0] 0 0
SFs 15.411896424 _0_ 28 [0 -> 10] 1(0) to 4 
s 15.411896424 _0_ RTR  --- 27 tcp 1060 [0 0 0 0] ------- [0:0 10:0 32 4] [13 0] 0 0
s 15.411896424 _0_ RTR  --- 28 tcp 1060 [0 0 0 0] ------- [0:0 10:0 32 4] [14 0] 0 0
r 15.422074660 _4_ RTR  --- 21 tcp 1060 [13a 4 0 800] ------- [0:0 10:0 32 4] [10 0] 1 0
SFf 15.422074660 _4_ 21 [0 -> 10] 1 to 7
f 15.422074660 _4_ RTR  --- 21 tcp 1060 [13a 4 0 800] ------- [0:0 10:0 31 7] [10 0] 1 0
r 15.424312896 _0_ RTR  --- 25 ack 60 [13a 0 4 800] ------- [10:0 0:0 30 0] [7 0] 3 0
r 15.424312896 _0_ AGT  --- 25 ack 40 [13a 0 4 800] ------- [10:0 0:0 30 0] [7 0] 3 0
s 15.424312896 _0_ AGT  --- 29 tcp 1040 [0 0 0 0] ------- [0:0 10:0 32 0] [15 0] 0 0
r 15.424312896 _0_ RTR  --- 29 tcp 1040 [0 0 0 0] ------- [0:0 10:0 32 0] [15 0] 0 0
SFs 15.424312896 _0_ 29 [0 -> 10] 1(0) to 4 
s 15.424312896 _0_ AGT  --- 30 tcp 1040 [0 0 0 0] ------- [0:0 10:0 32 0] [16 0] 0 0
r 15.424312896 _0_ RTR  --- 30 tcp 1040 [0 0 0 0] ------- [0:0 10:0 32 0] [16 0] 0 0
SFs 15.424312896 _0_ 30 [0 -> 10] 1(0) to 4 
s 15.424312896 _0_ RTR  --- 29 tcp 1060 [0 0 0 0] ------- [0:0 10:0 32 4] [15 0] 0 0
s 15.424312896 _0_ RTR  --- 30 tcp 1060 [0 0 0 0] ------- [0:0 10:0 32 4] [16 0] 0 0
r 15.434531132 _4_ RTR  --- 23 tcp 1060 [13a 4 0 800] ------- [0:0 10:0 32 4] [11 0] 1 0
SFf 15.434531132 _4_ 23 [0 -> 10] 1 to 7
f 15.434531132 _4_ RTR  --- 23 tcp 1060 [13a 4 0 800] ------- [0:0 10:0 31 7] [11 0] 1 0
r 15.444608132 _7_ RTR  --- 21 tcp 1060 [13a 7 4 800] ------- [0:0 10:0 31 7] [10 0] 2 0
SFf 15.444608132 _7_ 21 [0 -> 10] 1 to 10
f 15.444608132 _7_ RTR  --- 21 tcp 1060 [13a 7 4 800] ------- [0:0 10:0 30 10] [10 0] 2 0
r 15.446685132 _4_ RTR  --- 26 ack 60 [13a 4 7 800] ------- [10:0 0:0 31 4] [8 0] 2 0
SFf 15.446685132 _4_ 26 [10 -> 0] 1 to 0
f 15.446685132 _4_ RTR  --- 26 ack 60 [13a 4 7 800] ------- [10:0 0:0 30 0] [8 0] 2 0
r 15.456962132 _7_ RTR  --- 23 tcp 1060 [13a 7 4 800] ------- [0:0 10:0 31 7] [11 0] 2 0