n -t * -s 0  -x 100 -y 100 -Z 0 -z 30  -v circle -c black
n -t * -s 1  -x 300 -y 100 -Z 0 -z 30  -v circle -c black
n -t * -s 2  -x 500 -y 100 -Z 0 -z 30  -v circle -c black
n -t * -s 3  -x 100 -y 200 -Z 0 -z 30  -v circle -c black
n -t * -s 4  -x 300 -y 200 -Z 0 -z 30  -v circle -c black
n -t * -s 5  -x 500 -y 200 -Z 0 -z 30  -v circle -c black
n -t * -s 6  -x 100 -y 300 -Z 0 -z 30  -v circle -c black
n -t * -s 7  -x 300 -y 300 -Z 0 -z 30  -v circle -c black
n -t * -s 8  -x 500 -y 300 -Z 0 -z 30  -v circle -c black
n -t * -s 9  -x 100 -y 500 -Z 0 -z 30  -v circle -c black
n -t * -s 10  -x 300 -y 500 -Z 0 -z 30  -v circle -c black
n -t * -s 11  -x 500 -y 500 -Z 0 -z 30  -v circle -c black
V -t * -v 1.0a5 -a 0
W -t * -x 500 -y 500
A -t * -n 1 -p 0 -o 0xffffffff -c 31 -a 1
A -t * -h 1 -m 2147483647 -s 0
n -t 13.000000 -s 5 -x 500.000000 -y 200.000000 -U -2.599497 -V 1.497536 -T 141.565846
+ -t 15.000000000 -s 0 -d -1 -p tcp -e 40 -c 2 -a 0 -i 0 -k AGT 
- -t 15.000000000 -s 0 -d -1 -p tcp -e 40 -c 2 -a 0 -i 0 -k AGT
h -t 15.000000000 -s 0 -d -1 -p tcp -e 40 -c 2 -a 0 -i 0 -k AGT
+ -t 15.000185341 -s 0 -d -1 -p DSR -e 32 -c 2 -a 0 -i 1 -k RTR 
- -t 15.000185341 -s 0 -d -1 -p DSR -e 32 -c 2 -a 0 -i 1 -k RTR
h -t 15.000185341 -s 0 -d -1 -p DSR -e 32 -c 2 -a 0 -i 1 -k RTR
+ -t 15.048764666 -s 0 -d -1 -p DSR -e 32 -c 2 -a 0 -i 2 -k RTR 
- -t 15.048764666 -s 0 -d -1 -p DSR -e 32 -c 2 -a 0 -i 2 -k RTR
h -t 15.048764666 -s 0 -d -1 -p DSR -e 32 -c 2 -a 0 -i 2 -k RTR
+ -t 15.052475784 -s 4 -d -1 -p DSR -e 48 -c 2 -a 0 -i 2 -k RTR 
- -t 15.052475784 -s 4 -d -1 -p DSR -e 48 -c 2 -a 0 -i 2 -k RTR
h -t 15.052475784 -s 4 -d -1 -p DSR -e 48 -c 2 -a 0 -i 2 -k RTR
+ -t 15.052921484 -s 1 -d -1 -p DSR -e 48 -c 2 -a 0 -i 2 -k RTR 
- -t 15.052921484 -s 1 -d -1 -p DSR -e 48 -c 2 -a 0 -i 2 -k RTR
h -t 15.052921484 -s 1 -d -1 -p DSR -e 48 -c 2 -a 0 -i 2 -k RTR
+ -t 15.055459131 -s 2 -d -1 -p DSR -e 68 -c 2 -a 0 -i 2 -k RTR 
- -t 15.055459131 -s 2 -d -1 -p DSR -e 68 -c 2 -a 0 -i 2 -k RTR
h -t 15.055459131 -s 2 -d -1 -p DSR -e 68 -c 2 -a 0 -i 2 -k RTR
+ -t 15.058106266 -s 5 -d -1 -p DSR -e 68 -c 2 -a 0 -i 2 -k RTR 
- -t 15.058106266 -s 5 -d -1 -p DSR -e 68 -c 2 -a 0 -i 2 -k RTR
h -t 15.058106266 -s 5 -d -1 -p DSR -e 68 -c 2 -a 0 -i 2 -k RTR
+ -t 15.058524920 -s 6 -d -1 -p DSR -e 48 -c 2 -a 0 -i 2 -k RTR 
- -t 15.058524920 -s 6 -d -1 -p DSR -e 48 -c 2 -a 0 -i 2 -k RTR
h -t 15.058524920 -s 6 -d -1 -p DSR -e 48 -c 2 -a 0 -i 2 -k RTR
+ -t 15.058794785 -s 8 -d -1 -p DSR -e 68 -c 2 -a 0 -i 2 -k RTR 
- -t 15.058794785 -s 8 -d -1 -p DSR -e 68 -c 2 -a 0 -i 2 -k RTR
h -t 15.058794785 -s 8 -d -1 -p DSR -e 68 -c 2 -a 0 -i 2 -k RTR
+ -t 15.059144797 -s 3 -d -1 -p DSR -e 48 -c 2 -a 0 -i 2 -k RTR 
- -t 15.059144797 -s 3 -d -1 -p DSR -e 48 -c 2 -a 0 -i 2 -k RTR
h -t 15.059144797 -s 3 -d -1 -p DSR -e 48 -c 2 -a 0 -i 2 -k RTR
+ -t 15.060030640 -s 7 -d -1 -p DSR -e 68 -c 2 -a 0 -i 2 -k RTR 
- -t 15.060030640 -s 7 -d -1 -p DSR -e 68 -c 2 -a 0 -i 2 -k RTR
h -t 15.060030640 -s 7 -d -1 -p DSR -e 68 -c 2 -a 0 -i 2 -k RTR
+ -t 15.060794847 -s 11 -d -1 -p DSR -e 92 -c 2 -a 0 -i 2 -k RTR 
- -t 15.060794847 -s 11 -d -1 -p DSR -e 92 -c 2 -a 0 -i 2 -k RTR
h -t 15.060794847 -s 11 -d -1 -p DSR -e 92 -c 2 -a 0 -i 2 -k RTR
+ -t 15.066717616 -s 10 -d 7 -p DSR -e 60 -c 2 -a 0 -i 3 -k RTR 
- -t 15.066717616 -s 10 -d 7 -p DSR -e 60 -c 2 -a 0 -i 3 -k RTR
h -t 15.066717616 -s 10 -d 7 -p DSR -e 60 -c 2 -a 0 -i 3 -k RTR
+ -t 15.068471616 -s 7 -d 4 -p DSR -e 60 -c 2 -a 0 -i 3 -k RTR 
- -t 15.068471616 -s 7 -d 4 -p DSR -e 60 -c 2 -a 0 -i 3 -k RTR
h -t 15.068471616 -s 7 -d 4 -p DSR -e 60 -c 2 -a 0 -i 3 -k RTR
+ -t 15.070588616 -s 4 -d 0 -p DSR -e 60 -c 2 -a 0 -i 3 -k RTR 
- -t 15.070588616 -s 4 -d 0 -p DSR -e 60 -c 2 -a 0 -i 3 -k RTR
h -t 15.070588616 -s 4 -d 0 -p DSR -e 60 -c 2 -a 0 -i 3 -k RTR
+ -t 15.072586853 -s 0 -d 4 -p tcp -e 84 -c 2 -a 0 -i 0 -k RTR 
- -t 15.072586853 -s 0 -d 4 -p tcp -e 84 -c 2 -a 0 -i 0 -k RTR
h -t 15.072586853 -s 0 -d 4 -p tcp -e 84 -c 2 -a 0 -i 0 -k RTR
+ -t 15.073349422 -s 9 -d -1 -p DSR -e 68 -c 2 -a 0 -i 2 -k RTR 
- -t 15.073349422 -s 9 -d -1 -p DSR -e 68 -c 2 -a 0 -i 2 -k RTR
h -t 15.073349422 -s 9 -d -1 -p DSR -e 68 -c 2 -a 0 -i 2 -k RTR
+ -t 15.073636301 -s 10 -d 11 -p DSR -e 68 -c 2 -a 0 -i 4 -k RTR 
- -t 15.073636301 -s 10 -d 11 -p DSR -e 68 -c 2 -a 0 -i 4 -k RTR
h -t 15.073636301 -s 10 -d 11 -p DSR -e 68 -c 2 -a 0 -i 4 -k RTR
+ -t 15.074737089 -s 4 -d 7 -p tcp -e 84 -c 2 -a 0 -i 0 -k RTR 
- -t 15.074737089 -s 4 -d 7 -p tcp -e 84 -c 2 -a 0 -i 0 -k RTR
h -t 15.074737089 -s 4 -d 7 -p tcp -e 84 -c 2 -a 0 -i 0 -k RTR
+ -t 15.077426089 -s 7 -d 10 -p tcp -e 84 -c 2 -a 0 -i 0 -k RTR 
- -t 15.077426089 -s 7 -d 10 -p tcp -e 84 -c 2 -a 0 -i 0 -k RTR
h -t 15.077426089 -s 7 -d 10 -p tcp -e 84 -c 2 -a 0 -i 0 -k RTR
r -t 15.079596089 -s 10 -d 10 -p tcp -e 40 -c 2 -a 0 -i 0 -k AGT
+ -t 15.079596089 -s 10 -d -1 -p ack -e 40 -c 2 -a 0 -i 5 -k AGT 
- -t 15.079596089 -s 10 -d -1 -p ack -e 40 -c 2 -a 0 -i 5 -k AGT
h -t 15.079596089 -s 10 -d -1 -p ack -e 40 -c 2 -a 0 -i 5 -k AGT
+ -t 15.079596089 -s 10 -d 7 -p ack -e 84 -c 2 -a 0 -i 5 -k RTR 
- -t 15.079596089 -s 10 -d 7 -p ack -e 84 -c 2 -a 0 -i 5 -k RTR
h -t 15.079596089 -s 10 -d 7 -p ack -e 84 -c 2 -a 0 -i 5 -k RTR
+ -t 15.081738089 -s 11 -d 8 -p DSR -e 68 -c 2 -a 0 -i 4 -k RTR 
- -t 15.081738089 -s 11 -d 8 -p DSR -e 68 -c 2 -a 0 -i 4 -k RTR
h -t 15.081738089 -s 11 -d 8 -p DSR -e 68 -c 2 -a 0 -i 4 -k RTR
+ -t 15.083900089 -s 8 -d 4 -p DSR -e 68 -c 2 -a 0 -i 4 -k RTR 
- -t 15.083900089 -s 8 -d 4 -p DSR -e 68 -c 2 -a 0 -i 4 -k RTR
h -t 15.083900089 -s 8 -d 4 -p DSR -e 68 -c 2 -a 0 -i 4 -k RTR
+ -t 15.085982325 -s 4 -d 0 -p DSR -e 68 -c 2 -a 0 -i 4 -k RTR 
- -t 15.085982325 -s 4 -d 0 -p DSR -e 68 -c 2 -a 0 -i 4 -k RTR
h -t 15.085982325 -s 4 -d 0 -p DSR -e 68 -c 2 -a 0 -i 4 -k RTR
+ -t 15.091910561 -s 7 -d 4 -p ack -e 84 -c 2 -a 0 -i 5 -k RTR 
- -t 15.091910561 -s 7 -d 4 -p ack -e 84 -c 2 -a 0 -i 5 -k RTR
h -t 15.091910561 -s 7 -d 4 -p ack -e 84 -c 2 -a 0 -i 5 -k RTR
+ -t 15.094219561 -s 4 -d 0 -p ack -e 84 -c 2 -a 0 -i 5 -k RTR 
- -t 15.094219561 -s 4 -d 0 -p ack -e 84 -c 2 -a 0 -i 5 -k RTR
h -t 15.094219561 -s 4 -d 0 -p ack -e 84 -c 2 -a 0 -i 5 -k RTR
r -t 15.096489797 -s 0 -d 0 -p ack -e 40 -c 2 -a 0 -i 5 -k AGT
+ -t 15.096489797 -s 0 -d -1 -p tcp -e 1040 -c 2 -a 0 -i 7 -k AGT 
- -t 15.096489797 -s 0 -d -1 -p tcp -e 1040 -c 2 -a 0 -i 7 -k AGT
h -t 15.096489797 -s 0 -d -1 -p tcp -e 1040 -c 2 -a 0 -i 7 -k AGT
+ -t 15.096489797 -s 0 -d -1 -p tcp -e 1040 -c 2 -a 0 -i 8 -k AGT 
- -t 15.096489797 -s 0 -d -1 -p tcp -e 1040 -c 2 -a 0 -i 8 -k AGT
h -t 15.096489797 -s 0 -d -1 -p tcp -e 1040 -c 2 -a 0 -i 8 -k AGT
+ -t 15.096489797 -s 0 -d 4 -p tcp -e 1084 -c 2 -a 0 -i 7 -k RTR 
- -t 15.096489797 -s 0 -d 4 -p tcp -e 1084 -c 2 -a 0 -i 7 -k RTR
h -t 15.096489797 -s 0 -d 4 -p tcp -e 1084 -c 2 -a 0 -i 7 -k RTR
+ -t 15.096489797 -s 0 -d 4 -p tcp -e 1084 -c 2 -a 0 -i 8 -k RTR 
- -t 15.096489797 -s 0 -d 4 -p tcp -e 1084 -c 2 -a 0 -i 8 -k RTR
h -t 15.096489797 -s 0 -d 4 -p tcp -e 1084 -c 2 -a 0 -i 8 -k RTR
+ -t 15.098434324 -s 10 -d 9 -p DSR -e 60 -c 2 -a 0 -i 6 -k RTR 
- -t 15.098434324 -s 10 -d 9 -p DSR -e 60 -c 2 -a 0 -i 6 -k RTR
h -t 15.098434324 -s 10 -d 9 -p DSR -e 60 -c 2 -a 0 -i 6 -k RTR
+ -t 15.106980033 -s 4 -d 7 -p tcp -e 1084 -c 2 -a 0 -i 7 -k RTR 
- -t 15.106980033 -s 4 -d 7 -p tcp -e 1084 -c 2 -a 0 -i 7 -k RTR
h -t 15.106980033 -s 4 -d 7 -p tcp -e 1084 -c 2 -a 0 -i 7 -k RTR
+ -t 15.117191014 -s 4 -d 7 -p tcp -e 1084 -c 2 -a 0 -i 8 -k RTR 
- -t 15.117191014 -s 4 -d 7 -p tcp -e 1084 -c 2 -a 0 -i 8 -k RTR
h -t 15.117191014 -s 4 -d 7 -p tcp -e 1084 -c 2 -a 0 -i 8 -k RTR
+ -t 15.127540014 -s 7 -d 10 -p tcp -e 1084 -c 2 -a 0 -i 7 -k RTR 
- -t 15.127540014 -s 7 -d 10 -p tcp -e 1084 -c 2 -a 0 -i 7 -k RTR
h -t 15.127540014 -s 7 -d 10 -p tcp -e 1084 -c 2 -a 0 -i 7 -k RTR
+ -t 15.137709348 -s 7 -d 10 -p tcp -e 1084 -c 2 -a 0 -i 8 -k RTR 
- -t 15.137709348 -s 7 -d 10 -p tcp -e 1084 -c 2 -a 0 -i 8 -k RTR
h -t 15.137709348 -s 7 -d 10 -p tcp -e 1084 -c 2 -a 0 -i 8 -k RTR
+ -t 15.139758014 -s 9 -d 6 -p DSR -e 60 -c 2 -a 0 -i 6 -k RTR 
- -t 15.139758014 -s 9 -d 6 -p DSR -e 60 -c 2 -a 0 -i 6 -k RTR
h -t 15.139758014 -s 9 -d 6 -p DSR -e 60 -c 2 -a 0 -i 6 -k RTR
+ -t 15.141956014 -s 6 -d 0 -p DSR -e 60 -c 2 -a 0 -i 6 -k RTR 
- -t 15.141956014 -s 6 -d 0 -p DSR -e 60 -c 2 -a 0 -i 6 -k RTR
h -t 15.141956014 -s 6 -d 0 -p DSR -e 60 -c 2 -a 0 -i 6 -k RTR
r -t 15.154848957 -s 10 -d 10 -p tcp -e 1040 -c 2 -a 0 -i 7 -k AGT
+ -t 15.154848957 -s 10 -d -1 -p ack -e 40 -c 2 -a 0 -i 9 -k AGT 
- -t 15.154848957 -s 10 -d -1 -p ack -e 40 -c 2 -a 0 -i 9 -k AGT
h -t 15.154848957 -s 10 -d -1 -p ack -e 40 -c 2 -a 0 -i 9 -k AGT
+ -t 15.154848957 -s 10 -d 7 -p ack -e 84 -c 2 -a 0 -i 9 -k RTR 
- -t 15.154848957 -s 10 -d 7 -p ack -e 84 -c 2 -a 0 -i 9 -k RTR
h -t 15.154848957 -s 10 -d 7 -p ack -e 84 -c 2 -a 0 -i 9 -k RTR
r -t 15.165219624 -s 10 -d 10 -p tcp -e 1040 -c 2 -a 0 -i 8 -k AGT
+ -t 15.165219624 -s 10 -d -1 -p ack -e 40 -c 2 -a 0 -i 10 -k AGT 
- -t 15.165219624 -s 10 -d -1 -p ack -e 40 -c 2 -a 0 -i 10 -k AGT
h -t 15.165219624 -s 10 -d -1 -p ack -e 40 -c 2 -a 0 -i 10 -k AGT
+ -t 15.165219624 -s 10 -d 7 -p ack -e 84 -c 2 -a 0 -i 10 -k RTR 
- -t 15.165219624 -s 10 -d 7 -p ack -e 84 -c 2 -a 0 -i 10 -k RTR
h -t 15.165219624 -s 10 -d 7 -p ack -e 84 -c 2 -a 0 -i 10 -k RTR
+ -t 15.167529624 -s 7 -d 4 -p ack -e 84 -c 2 -a 0 -i 9 -k RTR 
- -t 15.167529624 -s 7 -d 4 -p ack -e 84 -c 2 -a 0 -i 9 -k RTR
h -t 15.167529624 -s 7 -d 4 -p ack -e 84 -c 2 -a 0 -i 9 -k RTR
+ -t 15.170100290 -s 7 -d 4 -p ack -e 84 -c 2 -a 0 -i 10 -k RTR 
- -t 15.170100290 -s 7 -d 4 -p ack -e 84 -c 2 -a 0 -i 10 -k RTR
h -t 15.170100290 -s 7 -d 4 -p ack -e 84 -c 2 -a 0 -i 10 -k RTR
+ -t 15.172369290 -s 4 -d 0 -p ack -e 84 -c 2 -a 0 -i 9 -k RTR 
- -t 15.172369290 -s 4 -d 0 -p ack -e 84 -c 2 -a 0 -i 9 -k RTR
h -t 15.172369290 -s 4 -d 0 -p ack -e 84 -c 2 -a 0 -i 9 -k RTR
r -t 15.174879527 -s 0 -d 0 -p ack -e 40 -c 2 -a 0 -i 9 -k AGT
+ -t 15.174879527 -s 0 -d -1 -p tcp -e 1040 -c 2 -a 0 -i 11 -k AGT 
- -t 15.174879527 -s 0 -d -1 -p tcp -e 1040 -c 2 -a 0 -i 11 -k AGT
h -t 15.174879527 -s 0 -d -1 -p tcp -e 1040 -c 2 -a 0 -i 11 -k AGT
+ -t 15.174879527 -s 0 -d -1 -p tcp -e 1040 -c 2 -a 0 -i 12 -k AGT 
- -t 15.174879527 -s 0 -d -1 -p tcp -e 1040 -c 2 -a 0 -i 12 -k AGT
h -t 15.174879527 -s 0 -d -1 -p tcp -e 1040 -c 2 -a 0 -i 12 -k AGT
+ -t 15.174879527 -s 0 -d 4 -p tcp -e 1060 -c 2 -a 0 -i 11 -k RTR 
- -t 15.174879527 -s 0 -d 4 -p tcp -e 1060 -c 2 -a 0 -i 11 -k RTR
h -t 15.174879527 -s 0 -d 4 -p tcp -e 1060 -c 2 -a 0 -i 11 -k RTR
+ -t 15.174879527 -s 0 -d 4 -p tcp -e 1060 -c 2 -a 0 -i 12 -k RTR 
- -t 15.174879527 -s 0 -d 4 -p tcp -e 1060 -c 2 -a 0 -i 12 -k RTR
h -t 15.174879527 -s 0 -d 4 -p tcp -e 1060 -c 2 -a 0 -i 12 -k RTR
+ -t 15.184897763 -s 4 -d 7 -p tcp -e 1060 -c 2 -a 0 -i 11 -k RTR 
- -t 15.184897763 -s 4 -d 7 -p tcp -e 1060 -c 2 -a 0 -i 11 -k RTR
h -t 15.184897763 -s 4 -d 7 -p tcp -e 1060 -c 2 -a 0 -i 11 -k RTR
+ -t 15.187196960 -s 4 -d 0 -p ack -e 84 -c 2 -a 0 -i 10 -k RTR 
- -t 15.187196960 -s 4 -d 0 -p ack -e 84 -c 2 -a 0 -i 10 -k RTR
h -t 15.187196960 -s 4 -d 0 -p ack -e 84 -c 2 -a 0 -i 10 -k RTR
+ -t 15.197453960 -s 7 -d 10 -p tcp -e 1060 -c 2 -a 0 -i 11 -k RTR 
- -t 15.197453960 -s 7 -d 10 -p tcp -e 1060 -c 2 -a 0 -i 11 -k RTR
h -t 15.197453960 -s 7 -d 10 -p tcp -e 1060 -c 2 -a 0 -i 11 -k RTR
r -t 15.207411960 -s 10 -d 10 -p tcp -e 1040 -c 2 -a 0 -i 11 -k AGT
+ -t 15.207411960 -s 10 -d -1 -p ack -e 40 -c 2 -a 0 -i 13 -k AGT 
- -t 15.207411960 -s 10 -d -1 -p ack -e 40 -c 2 -a 0 -i 13 -k AGT
h -t 15.207411960 -s 10 -d -1 -p ack -e 40 -c 2 -a 0 -i 13 -k AGT
+ -t 15.207411960 -s 10 -d 7 -p ack -e 60 -c 2 -a 0 -i 13 -k RTR 
- -t 15.207411960 -s 10 -d 7 -p ack -e 60 -c 2 -a 0 -i 13 -k RTR
h -t 15.207411960 -s 10 -d 7 -p ack -e 60 -c 2 -a 0 -i 13 -k RTR
+ -t 15.209449960 -s 7 -d 4 -p ack -e 60 -c 2 -a 0 -i 13 -k RTR 
- -t 15.209449960 -s 7 -d 4 -p ack -e 60 -c 2 -a 0 -i 13 -k RTR
h -t 15.209449960 -s 7 -d 4 -p ack -e 60 -c 2 -a 0 -i 13 -k RTR
r -t 15.211670529 -s 0 -d 0 -p ack -e 40 -c 2 -a 0 -i 10 -k AGT
+ -t 15.211670529 -s 0 -d -1 -p tcp -e 1040 -c 2 -a 0 -i 14 -k AGT 
- -t 15.211670529 -s 0 -d -1 -p tcp -e 1040 -c 2 -a 0 -i 14 -k AGT
h -t 15.211670529 -s 0 -d -1 -p tcp -e 1040 -c 2 -a 0 -i 14 -k AGT
+ -t 15.211670529 -s 0 -d -1 -p tcp -e 1040 -c 2 -a 0 -i 15 -k AGT 
- -t 15.211670529 -s 0 -d -1 -p tcp -e 1040 -c 2 -a 0 -i 15 -k AGT
h -t 15.211670529 -s 0 -d -1 -p tcp -e 1040 -c 2 -a 0 -i 15 -k AGT
+ -t 15.211670529 -s 0 -d 4 -p tcp -e 1060 -c 2 -a 0 -i 14 -k RTR 
- -t 15.211670529 -s 0 -d 4 -p tcp -e 1060 -c 2 -a 0 -i 14 -k RTR
h -t 15.211670529 -s 0 -d 4 -p tcp -e 1060 -c 2 -a 0 -i 14 -k RTR
+ -t 15.211670529 -s 0 -d 4 -p tcp -e 1060 -c 2 -a 0 -i 15 -k RTR 
- -t 15.211670529 -s 0 -d 4 -p tcp -e 1060 -c 2 -a 0 -i 15 -k RTR
h -t 15.211670529 -s 0 -d 4 -p tcp -e 1060 -c 2 -a 0 -i 15 -k RTR
+ -t 15.221668765 -s 4 -d 7 -p tcp -e 1060 -c 2 -a 0 -i 12 -k RTR 
- -t 15.221668765 -s 4 -d 7 -p tcp -e 1060 -c 2 -a 0 -i 12 -k RTR
h -t 15.221668765 -s 4 -d 7 -p tcp -e 1060 -c 2 -a 0 -i 12 -k RTR
+ -t 15.231647747 -s 4 -d 7 -p tcp -e 1060 -c 2 -a 0 -i 14 -k RTR 
- -t 15.231647747 -s 4 -d 7 -p tcp -e 1060 -c 2 -a 0 -i 14 -k RTR
h -t 15.231647747 -s 4 -d 7 -p tcp -e 1060 -c 2 -a 0 -i 14 -k RTR
+ -t 15.241644747 -s 7 -d 10 -p tcp -e 1060 -c 2 -a 0 -i 12 -k RTR 
- -t 15.241644747 -s 7 -d 10 -p tcp -e 1060 -c 2 -a 0 -i 12 -k RTR
h -t 15.241644747 -s 7 -d 10 -p tcp -e 1060 -c 2 -a 0 -i 12 -k RTR
+ -t 15.243841747 -s 4 -d 0 -p ack -e 60 -c 2 -a 0 -i 13 -k RTR 
- -t 15.243841747 -s 4 -d 0 -p ack -e 60 -c 2 -a 0 -i 13 -k RTR
h -t 15.243841747 -s 4 -d 0 -p ack -e 60 -c 2 -a 0 -i 13 -k RTR
+ -t 15.253890592 -s 4 -d 7 -p tcp -e 1060 -c 2 -a 0 -i 15 -k RTR 
- -t 15.253890592 -s 4 -d 7 -p tcp -e 1060 -c 2 -a 0 -i 15 -k RTR
h -t 15.253890592 -s 4 -d 7 -p tcp -e 1060 -c 2 -a 0 -i 15 -k RTR
+ -t 15.263847592 -s 7 -d 10 -p tcp -e 1060 -c 2 -a 0 -i 14 -k RTR 
- -t 15.263847592 -s 7 -d 10 -p tcp -e 1060 -c 2 -a 0 -i 14 -k RTR
h -t 15.263847592 -s 7 -d 10 -p tcp -e 1060 -c 2 -a 0 -i 14 -k RTR
r -t 15.274065592 -s 10 -d 10 -p tcp -e 1040 -c 2 -a 0 -i 12 -k AGT
+ -t 15.274065592 -s 10 -d -1 -p ack -e 40 -c 2 -a 0 -i 16 -k AGT 
- -t 15.274065592 -s 10 -d -1 -p ack -e 40 -c 2 -a 0 -i 16 -k AGT
h -t 15.274065592 -s 10 -d -1 -p ack -e 40 -c 2 -a 0 -i 16 -k AGT
+ -t 15.274065592 -s 10 -d 7 -p ack -e 60 -c 2 -a 0 -i 16 -k RTR 
- -t 15.274065592 -s 10 -d 7 -p ack -e 60 -c 2 -a 0 -i 16 -k RTR
h -t 15.274065592 -s 10 -d 7 -p ack -e 60 -c 2 -a 0 -i 16 -k RTR
+ -t 15.276083592 -s 7 -d 4 -p ack -e 60 -c 2 -a 0 -i 16 -k RTR 
- -t 15.276083592 -s 7 -d 4 -p ack -e 60 -c 2 -a 0 -i 16 -k RTR
h -t 15.276083592 -s 7 -d 4 -p ack -e 60 -c 2 -a 0 -i 16 -k RTR
r -t 15.278172162 -s 0 -d 0 -p ack -e 40 -c 2 -a 0 -i 13 -k AGT
+ -t 15.278172162 -s 0 -d -1 -p tcp -e 1040 -c 2 -a 0 -i 17 -k AGT 
- -t 15.278172162 -s 0 -d -1 -p tcp -e 1040 -c 2 -a 0 -i 17 -k AGT
h -t 15.278172162 -s 0 -d -1 -p tcp -e 1040 -c 2 -a 0 -i 17 -k AGT
+ -t 15.278172162 -s 0 -d -1 -p tcp -e 1040 -c 2 -a 0 -i 18 -k AGT 
- -t 15.278172162 -s 0 -d -1 -p tcp -e 1040 -c 2 -a 0 -i 18 -k AGT
h -t 15.278172162 -s 0 -d -1 -p tcp -e 1040 -c 2 -a 0 -i 18 -k AGT
+ -t 15.278172162 -s 0 -d 4 -p tcp -e 1060 -c 2 -a 0 -i 17 -k RTR 
- -t 15.278172162 -s 0 -d 4 -p tcp -e 1060 -c 2 -a 0 -i 17 -k RTR
h -t 15.278172162 -s 0 -d 4 -p tcp -e 1060 -c 2 -a 0 -i 17 -k RTR
+ -t 15.278172162 -s 0 -d 4 -p tcp -e 1060 -c 2 -a 0 -i 18 -k RTR 
- -t 15.278172162 -s 0 -d 4 -p tcp -e 1060 -c 2 -a 0 -i 18 -k RTR
h -t 15.278172162 -s 0 -d 4 -p tcp -e 1060 -c 2 -a 0 -i 18 -k RTR
+ -t 15.288449907 -s 7 -d 10 -p tcp -e 1060 -c 2 -a 0 -i 15 -k RTR 
- -t 15.288449907 -s 7 -d 10 -p tcp -e 1060 -c 2 -a 0 -i 15 -k RTR
h -t 15.288449907 -s 7 -d 10 -p tcp -e 1060 -c 2 -a 0 -i 15 -k RTR
r -t 15.298587907 -s 10 -d 10 -p tcp -e 1040 -c 2 -a 0 -i 14 -k AGT
+ -t 15.298587907 -s 10 -d -1 -p ack -e 40 -c 2 -a 0 -i 19 -k AGT 
- -t 15.298587907 -s 10 -d -1 -p ack -e 40 -c 2 -a 0 -i 19 -k AGT
h -t 15.298587907 -s 10 -d -1 -p ack -e 40 -c 2 -a 0 -i 19 -k AGT
+ -t 15.298587907 -s 10 -d 7 -p ack -e 60 -c 2 -a 0 -i 19 -k RTR 
- -t 15.298587907 -s 10 -d 7 -p ack -e 60 -c 2 -a 0 -i 19 -k RTR
h -t 15.298587907 -s 10 -d 7 -p ack -e 60 -c 2 -a 0 -i 19 -k RTR
+ -t 15.300605907 -s 7 -d 4 -p ack -e 60 -c 2 -a 0 -i 19 -k RTR 
- -t 15.300605907 -s 7 -d 4 -p ack -e 60 -c 2 -a 0 -i 19 -k RTR
h -t 15.300605907 -s 7 -d 4 -p ack -e 60 -c 2 -a 0 -i 19 -k RTR
+ -t 15.303042907 -s 4 -d 0 -p ack -e 60 -c 2 -a 0 -i 16 -k RTR 
- -t 15.303042907 -s 4 -d 0 -p ack -e 60 -c 2 -a 0 -i 16 -k RTR
h -t 15.303042907 -s 4 -d 0 -p ack -e 60 -c 2 -a 0 -i 16 -k RTR
+ -t 15.313171753 -s 4 -d 7 -p tcp -e 1060 -c 2 -a 0 -i 17 -k RTR 
- -t 15.313171753 -s 4 -d 7 -p tcp -e 1060 -c 2 -a 0 -i 17 -k RTR
h -t 15.313171753 -s 4 -d 7 -p tcp -e 1060 -c 2 -a 0 -i 17 -k RTR
r -t 15.315149989 -s 0 -d 0 -p ack -e 40 -c 2 -a 0 -i 16 -k AGT
+ -t 15.315149989 -s 0 -d -1 -p tcp -e 1040 -c 2 -a 0 -i 20 -k AGT 
- -t 15.315149989 -s 0 -d -1 -p tcp -e 1040 -c 2 -a 0 -i 20 -k AGT
h -t 15.315149989 -s 0 -d -1 -p tcp -e 1040 -c 2 -a 0 -i 20 -k AGT
+ -t 15.315149989 -s 0 -d -1 -p tcp -e 1040 -c 2 -a 0 -i 21 -k AGT 
- -t 15.315149989 -s 0 -d -1 -p tcp -e 1040 -c 2 -a 0 -i 21 -k AGT
h -t 15.315149989 -s 0 -d -1 -p tcp -e 1040 -c 2 -a 0 -i 21 -k AGT
+ -t 15.315149989 -s 0 -d 4 -p tcp -e 1060 -c 2 -a 0 -i 20 -k RTR 
- -t 15.315149989 -s 0 -d 4 -p tcp -e 1060 -c 2 -a 0 -i 20 -k RTR
h -t 15.315149989 -s 0 -d 4 -p tcp -e 1060 -c 2 -a 0 -i 20 -k RTR
+ -t 15.315149989 -s 0 -d 4 -p tcp -e 1060 -c 2 -a 0 -i 21 -k RTR 
- -t 15.315149989 -s 0 -d 4 -p tcp -e 1060 -c 2 -a 0 -i 21 -k RTR
h -t 15.315149989 -s 0 -d 4 -p tcp -e 1060 -c 2 -a 0 -i 21 -k RTR
+ -t 15.325087734 -s 7 -d 10 -p tcp -e 1060 -c 2 -a 0 -i 17 -k RTR 
- -t 15.325087734 -s 7 -d 10 -p tcp -e 1060 -c 2 -a 0 -i 17 -k RTR
h -t 15.325087734 -s 7 -d 10 -p tcp -e 1060 -c 2 -a 0 -i 17 -k RTR
r -t 15.335205734 -s 10 -d 10 -p tcp -e 1040 -c 2 -a 0 -i 15 -k AGT
+ -t 15.335205734 -s 10 -d -1 -p ack -e 40 -c 2 -a 0 -i 22 -k AGT 
- -t 15.335205734 -s 10 -d -1 -p ack -e 40 -c 2 -a 0 -i 22 -k AGT
h -t 15.335205734 -s 10 -d -1 -p ack -e 40 -c 2 -a 0 -i 22 -k AGT
+ -t 15.335205734 -s 10 -d 7 -p ack -e 60 -c 2 -a 0 -i 22 -k RTR 
- -t 15.335205734 -s 10 -d 7 -p ack -e 60 -c 2 -a 0 -i 22 -k RTR
h -t 15.335205734 -s 10 -d 7 -p ack -e 60 -c 2 -a 0 -i 22 -k RTR
+ -t 15.337163401 -s 4 -d 0 -p ack -e 60 -c 2 -a 0 -i 19 -k RTR 
- -t 15.337163401 -s 4 -d 0 -p ack -e 60 -c 2 -a 0 -i 19 -k RTR
h -t 15.337163401 -s 4 -d 0 -p ack -e 60 -c 2 -a 0 -i 19 -k RTR
r -t 15.339121637 -s 0 -d 0 -p ack -e 40 -c 2 -a 0 -i 19 -k AGT
+ -t 15.339121637 -s 0 -d -1 -p tcp -e 1040 -c 2 -a 0 -i 23 -k AGT 
- -t 15.339121637 -s 0 -d -1 -p tcp -e 1040 -c 2 -a 0 -i 23 -k AGT
h -t 15.339121637 -s 0 -d -1 -p tcp -e 1040 -c 2 -a 0 -i 23 -k AGT
+ -t 15.339121637 -s 0 -d -1 -p tcp -e 1040 -c 2 -a 0 -i 24 -k AGT 
- -t 15.339121637 -s 0 -d -1 -p tcp -e 1040 -c 2 -a 0 -i 24 -k AGT
h -t 15.339121637 -s 0 -d -1 -p tcp -e 1040 -c 2 -a 0 -i 24 -k AGT
+ -t 15.339121637 -s 0 -d 4 -p tcp -e 1060 -c 2 -a 0 -i 23 -k RTR 
- -t 15.339121637 -s 0 -d 4 -p tcp -e 1060 -c 2 -a 0 -i 23 -k RTR
h -t 15.339121637 -s 0 -d 4 -p tcp -e 1060 -c 2 -a 0 -i 23 -k RTR
+ -t 15.339121637 -s 0 -d 4 -p tcp -e 1060 -c 2 -a 0 -i 24 -k RTR 
- -t 15.339121637 -s 0 -d 4 -p tcp -e 1060 -c 2 -a 0 -i 24 -k RTR
h -t 15.339121637 -s 0 -d 4 -p tcp -e 1060 -c 2 -a 0 -i 24 -k RTR
+ -t 15.349199873 -s 4 -d 7 -p tcp -e 1060 -c 2 -a 0 -i 18 -k RTR 
- -t 15.349199873 -s 4 -d 7 -p tcp -e 1060 -c 2 -a 0 -i 18 -k RTR
h -t 15.349199873 -s 4 -d 7 -p tcp -e 1060 -c 2 -a 0 -i 18 -k RTR
+ -t 15.359218854 -s 4 -d 7 -p tcp -e 1060 -c 2 -a 0 -i 20 -k RTR 
- -t 15.359218854 -s 4 -d 7 -p tcp -e 1060 -c 2 -a 0 -i 20 -k RTR
h -t 15.359218854 -s 4 -d 7 -p tcp -e 1060 -c 2 -a 0 -i 20 -k RTR
+ -t 15.369535854 -s 7 -d 10 -p tcp -e 1060 -c 2 -a 0 -i 18 -k RTR 
- -t 15.369535854 -s 7 -d 10 -p tcp -e 1060 -c 2 -a 0 -i 18 -k RTR
h -t 15.369535854 -s 7 -d 10 -p tcp -e 1060 -c 2 -a 0 -i 18 -k RTR
r -t 15.379493854 -s 10 -d 10 -p tcp -e 1040 -c 2 -a 0 -i 17 -k AGT
+ -t 15.379493854 -s 10 -d -1 -p ack -e 40 -c 2 -a 0 -i 25 -k AGT 
- -t 15.379493854 -s 10 -d -1 -p ack -e 40 -c 2 -a 0 -i 25 -k AGT
h -t 15.379493854 -s 10 -d -1 -p ack -e 40 -c 2 -a 0 -i 25 -k AGT
+ -t 15.379493854 -s 10 -d 7 -p ack -e 60 -c 2 -a 0 -i 25 -k RTR 
- -t 15.379493854 -s 10 -d 7 -p ack -e 60 -c 2 -a 0 -i 25 -k RTR
h -t 15.379493854 -s 10 -d 7 -p ack -e 60 -c 2 -a 0 -i 25 -k RTR
+ -t 15.381451854 -s 7 -d 4 -p ack -e 60 -c 2 -a 0 -i 22 -k RTR 
- -t 15.381451854 -s 7 -d 4 -p ack -e 60 -c 2 -a 0 -i 22 -k RTR
h -t 15.381451854 -s 7 -d 4 -p ack -e 60 -c 2 -a 0 -i 22 -k RTR
r -t 15.391669854 -s 10 -d 10 -p tcp -e 1040 -c 2 -a 0 -i 18 -k AGT
+ -t 15.391669854 -s 10 -d -1 -p ack -e 40 -c 2 -a 0 -i 26 -k AGT 
- -t 15.391669854 -s 10 -d -1 -p ack -e 40 -c 2 -a 0 -i 26 -k AGT
h -t 15.391669854 -s 10 -d -1 -p ack -e 40 -c 2 -a 0 -i 26 -k AGT
+ -t 15.391669854 -s 10 -d 7 -p ack -e 60 -c 2 -a 0 -i 26 -k RTR 
- -t 15.391669854 -s 10 -d 7 -p ack -e 60 -c 2 -a 0 -i 26 -k RTR
h -t 15.391669854 -s 10 -d 7 -p ack -e 60 -c 2 -a 0 -i 26 -k RTR
+ -t 15.393687854 -s 7 -d 4 -p ack -e 60 -c 2 -a 0 -i 25 -k RTR 
- -t 15.393687854 -s 7 -d 4 -p ack -e 60 -c 2 -a 0 -i 25 -k RTR
h -t 15.393687854 -s 7 -d 4 -p ack -e 60 -c 2 -a 0 -i 25 -k RTR
+ -t 15.395926521 -s 7 -d 4 -p ack -e 60 -c 2 -a 0 -i 26 -k RTR 
- -t 15.395926521 -s 7 -d 4 -p ack -e 60 -c 2 -a 0 -i 26 -k RTR
h -t 15.395926521 -s 7 -d 4 -p ack -e 60 -c 2 -a 0 -i 26 -k RTR
+ -t 15.397943521 -s 4 -d 0 -p ack -e 60 -c 2 -a 0 -i 22 -k RTR 
- -t 15.397943521 -s 4 -d 0 -p ack -e 60 -c 2 -a 0 -i 22 -k RTR
h -t 15.397943521 -s 4 -d 0 -p ack -e 60 -c 2 -a 0 -i 22 -k RTR
+ -t 15.399940854 -s 4 -d 0 -p ack -e 60 -c 2 -a 0 -i 25 -k RTR 
- -t 15.399940854 -s 4 -d 0 -p ack -e 60 -c 2 -a 0 -i 25 -k RTR
h -t 15.399940854 -s 4 -d 0 -p ack -e 60 -c 2 -a 0 -i 25 -k RTR
+ -t 15.409937854 -s 7 -d 10 -p tcp -e 1060 -c 2 -a 0 -i 20 -k RTR 
- -t 15.409937854 -s 7 -d 10 -p tcp -e 1060 -c 2 -a 0 -i 20 -k RTR
h -t 15.409937854 -s 7 -d 10 -p tcp -e 1060 -c 2 -a 0 -i 20 -k RTR
r -t 15.411896424 -s 0 -d 0 -p ack -e 40 -c 2 -a 0 -i 22 -k AGT
+ -t 15.411896424 -s 0 -d -1 -p tcp -e 1040 -c 2 -a 0 -i 27 -k AGT 
- -t 15.411896424 -s 0 -d -1 -p tcp -e 1040 -c 2 -a 0 -i 27 -k AGT
h -t 15.411896424 -s 0 -d -1 -p tcp -e 1040 -c 2 -a 0 -i 27 -k AGT
+ -t 15.411896424 -s 0 -d -1 -p tcp -e 1040 -c 2 -a 0 -i 28 -k AGT 
- -t 15.411896424 -s 0 -d -1 -p tcp -e 1040 -c 2 -a 0 -i 28 -k AGT
h -t 15.411896424 -s 0 -d -1 -p tcp -e 1040 -c 2 -a 0 -i 28 -k AGT
+ -t 15.411896424 -s 0 -d 4 -p tcp -e 1060 -c 2 -a 0 -i 27 -k RTR 
- -t 15.411896424 -s 0 -d 4 -p tcp -e 1060 -c 2 -a 0 -i 27 -k RTR
h -t 15.411896424 -s 0 -d 4 -p tcp -e 1060 -c 2 -a 0 -i 27 -k RTR
+ -t 15.411896424 -s 0 -d 4 -p tcp -e 1060 -c 2 -a 0 -i 28 -k RTR 
- -t 15.411896424 -s 0 -d 4 -p tcp -e 1060 -c 2 -a 0 -i 28 -k RTR
h -t 15.411896424 -s 0 -d 4 -p tcp -e 1060 -c 2 -a 0 -i 28 -k RTR
+ -t 15.422074660 -s 4 -d 7 -p tcp -e 1060 -c 2 -a 0 -i 21 -k RTR 
- -t 15.422074660 -s 4 -d 7 -p tcp -e 1060 -c 2 -a 0 -i 21 -k RTR
h -t 15.422074660 -s 4 -d 7 -p tcp -e 1060 -c 2 -a 0 -i 21 -k RTR
r -t 15.424312896 -s 0 -d 0 -p ack -e 40 -c 2 -a 0 -i 25 -k AGT
+ -t 15.424312896 -s 0 -d -1 -p tcp -e 1040 -c 2 -a 0 -i 29 -k AGT 
- -t 15.424312896 -s 0 -d -1 -p tcp -e 1040 -c 2 -a 0 -i 29 -k AGT
h -t 15.424312896 -s 0 -d -1 -p tcp -e 1040 -c 2 -a 0 -i 29 -k AGT
+ -t 15.424312896 -s 0 -d -1 -p tcp -e 1040 -c 2 -a 0 -i 30 -k AGT 
- -t 15.424312896 -s 0 -d -1 -p tcp -e 1040 -c 2 -a 0 -i 30 -k AGT
h -t 15.424312896 -s 0 -d -1 -p tcp -e 1040 -c 2 -a 0 -i 30 -k AGT
+ -t 15.424312896 -s 0 -d 4 -p tcp -e 1060 -c 2 -a 0 -i 29 -k RTR 
- -t 15.424312896 -s 0 -d 4 -p tcp -e 1060 -c 2 -a 0 -i 29 -k RTR
h -t 15.424312896 -s 0 -d 4 -p tcp -e 1060 -c 2 -a 0 -i 29 -k RTR
+ -t 15.424312896 -s 0 -d 4 -p tcp -e 1060 -c 2 -a 0 -i 30 -k RTR 
- -t 15.424312896 -s 0 -d 4 -p tcp -e 1060 -c 2 -a 0 -i 30 -k RTR
h -t 15.424312896 -s 0 -d 4 -p tcp -e 1060 -c 2 -a 0 -i 30 -k RTR
+ -t 15.434531132 -s 4 -d 7 -p tcp -e 1060 -c 2 -a 0 -i 23 -k RTR 
- -t 15.434531132 -s 4 -d 7 -p tcp -e 1060 -c 2 -a 0 -i 23 -k RTR
h -t 15.434531132 -s 4 -d 7 -p tcp -e 1060 -c 2 -a 0 -i 23 -k RTR
+ -t 15.444608132 -s 7 -d 10 -p tcp -e 1060 -c 2 -a 0 -i 21 -k RTR 
- -t 15.444608132 -s 7 -d 10 -p tcp -e 1060 -c 2 -a 0 -i 21 -k RTR
h -t 15.444608132 -s 7 -d 10 -p tcp -e 1060 -c 2 -a 0 -i 21 -k RTR
+ -t 15.446685132 -s 4 -d 0 -p ack -e 60 -c 2 -a 0 -i 26 -k RTR 
- -t 15.446685132 -s 4 -d 0 -p ack -e 60 -c 2 -a 0 -i 26 -k RTR
h -t 15.446685132 -s 4 -d 0 -p ack -e 60 -c 2 -a 0 -i 26 -k RTR
+ -t 15.456962132 -s 7 -d 10 -p tcp -e 1060 -c 2 -a 0 -i 23 -k RTR 
- -t 15.456962132 -s 7 -d 10 -p tcp -e 1060 -c 2 -a 0 -i 23 -k RTR
h -t 15.456962132 -s 7 -d 10 -p tcp -e 1060 -c 2 -a 0 -i 23 -k RTR
r -t 15.467040132 -s 10 -d 10 -p tcp -e 1040 -c 2 -a 0 -i 20 -k AGT
+ -t 15.467040132 -s 10 -d -1 -p ack -e 40 -c 2 -a 0 -i 31 -k AGT 
- -t 15.467040132 -s 10 -d -1 -p ack -e 40 -c 2 -a 0 -i 31 -k AGT
h -t 15.467040132 -s 10 -d -1 -p ack -e 40 -c 2 -a 0 -i 31 -k AGT
+ -t 15.467040132 -s 10 -d 7 -p ack -e 60 -c 2 -a 0 -i 31 -k RTR 
- -t 15.467040132 -s 10 -d 7 -p ack -e 60 -c 2 -a 0 -i 31 -k RTR
h -t 15.467040132 -s 10 -d 7 -p ack -e 60 -c 2 -a 0 -i 31 -k RTR
+ -t 15.469038132 -s 7 -d 4 -p ack -e 60 -c 2 -a 0 -i 31 -k RTR 
- -t 15.469038132 -s 7 -d 4 -p ack -e 60 -c 2 -a 0 -i 31 -k RTR
h -t 15.469038132 -s 7 -d 4 -p ack -e 60 -c 2 -a 0 -i 31 -k RTR
r -t 15.479376132 -s 10 -d 10 -p tcp -e 1040 -c 2 -a 0 -i 21 -k AGT
+ -t 15.479376132 -s 10 -d -1 -p ack -e 40 -c 2 -a 0 -i 32 -k AGT 
- -t 15.479376132 -s 10 -d -1 -p ack -e 40 -c 2 -a 0 -i 32 -k AGT
h -t 15.479376132 -s 10 -d -1 -p ack -e 40 -c 2 -a 0 -i 32 -k AGT
+ -t 15.479376132 -s 10 -d 7 -p ack -e 60 -c 2 -a 0 -i 32 -k RTR 
- -t 15.479376132 -s 10 -d 7 -p ack -e 60 -c 2 -a 0 -i 32 -k RTR
h -t 15.479376132 -s 10 -d 7 -p ack -e 60 -c 2 -a 0 -i 32 -k RTR
r -t 15.489494799 -s 10 -d 10 -p tcp -e 1040 -c 2 -a 0 -i 23 -k AGT
+ -t 15.489494799 -s 10 -d -1 -p ack -e 40 -c 2 -a 0 -i 33 -k AGT 
- -t 15.489494799 -s 10 -d -1 -p ack -e 40 -c 2 -a 0 -i 33 -k AGT
h -t 15.489494799 -s 10 -d -1 -p ack -e 40 -c 2 -a 0 -i 33 -k AGT
+ -t 15.489494799 -s 10 -d 7 -p ack -e 60 -c 2 -a 0 -i 33 -k RTR 
- -t 15.489494799 -s 10 -d 7 -p ack -e 60 -c 2 -a 0 -i 33 -k RTR
h -t 15.489494799 -s 10 -d 7 -p ack -e 60 -c 2 -a 0 -i 33 -k RTR
+ -t 15.491572799 -s 7 -d 4 -p ack -e 60 -c 2 -a 0 -i 32 -k RTR 
- -t 15.491572799 -s 7 -d 4 -p ack -e 60 -c 2 -a 0 -i 32 -k RTR
h -t 15.491572799 -s 7 -d 4 -p ack -e 60 -c 2 -a 0 -i 32 -k RTR
r -t 15.493601368 -s 0 -d 0 -p ack -e 40 -c 2 -a 0 -i 26 -k AGT
+ -t 15.493601368 -s 0 -d -1 -p tcp -e 1040 -c 2 -a 0 -i 34 -k AGT 
- -t 15.493601368 -s 0 -d -1 -p tcp -e 1040 -c 2 -a 0 -i 34 -k AGT
h -t 15.493601368 -s 0 -d -1 -p tcp -e 1040 -c 2 -a 0 -i 34 -k AGT
+ -t 15.493601368 -s 0 -d -1 -p tcp -e 1040 -c 2 -a 0 -i 35 -k AGT 
- -t 15.493601368 -s 0 -d -1 -p tcp -e 1040 -c 2 -a 0 -i 35 -k AGT
h -t 15.493601368 -s 0 -d -1 -p tcp -e 1040 -c 2 -a 0 -i 35 -k AGT
+ -t 15.493601368 -s 0 -d 4 -p tcp -e 1060 -c 2 -a 0 -i 34 -k RTR 
- -t 15.493601368 -s 0 -d 4 -p tcp -e 1060 -c 2 -a 0 -i 34 -k RTR
h -t 15.493601368 -s 0 -d 4 -p tcp -e 1060 -c 2 -a 0 -i 34 -k RTR
+ -t 15.493601368 -s 0 -d 4 -p tcp -e 1060 -c 2 -a 0 -i 35 -k RTR 
- -t 15.493601368 -s 0 -d 4 -p tcp -e 1060 -c 2 -a 0 -i 35 -k RTR
h -t 15.493601368 -s 0 -d 4 -p tcp -e 1060 -c 2 -a 0 -i 35 -k RTR
+ -t 15.503619604 -s 4 -d 7 -p tcp -e 1060 -c 2 -a 0 -i 24 -k RTR 
- -t 15.503619604 -s 4 -d 7 -p tcp -e 1060 -c 2 -a 0 -i 24 -k RTR
h -t 15.503619604 -s 4 -d 7 -p tcp -e 1060 -c 2 -a 0 -i 24 -k RTR
+ -t 15.505706802 -s 4 -d 0 -p ack -e 60 -c 2 -a 0 -i 31 -k RTR 
- -t 15.505706802 -s 4 -d 0 -p ack -e 60 -c 2 -a 0 -i 31 -k RTR
h -t 15.505706802 -s 4 -d 0 -p ack -e 60 -c 2 -a 0 -i 31 -k RTR
+ -t 15.515775647 -s 4 -d 7 -p tcp -e 1060 -c 2 -a 0 -i 27 -k RTR 
- -t 15.515775647 -s 4 -d 7 -p tcp -e 1060 -c 2 -a 0 -i 27 -k RTR
h -t 15.515775647 -s 4 -d 7 -p tcp -e 1060 -c 2 -a 0 -i 27 -k RTR
+ -t 15.525952647 -s 7 -d 10 -p tcp -e 1060 -c 2 -a 0 -i 24 -k RTR 
- -t 15.525952647 -s 7 -d 10 -p tcp -e 1060 -c 2 -a 0 -i 24 -k RTR
h -t 15.525952647 -s 7 -d 10 -p tcp -e 1060 -c 2 -a 0 -i 24 -k RTR
r -t 15.527951217 -s 0 -d 0 -p ack -e 40 -c 2 -a 0 -i 31 -k AGT
+ -t 15.527951217 -s 0 -d -1 -p tcp -e 1040 -c 2 -a 0 -i 36 -k AGT 
- -t 15.527951217 -s 0 -d -1 -p tcp -e 1040 -c 2 -a 0 -i 36 -k AGT
h -t 15.527951217 -s 0 -d -1 -p tcp -e 1040 -c 2 -a 0 -i 36 -k AGT
+ -t 15.527951217 -s 0 -d -1 -p tcp -e 1040 -c 2 -a 0 -i 37 -k AGT 
- -t 15.527951217 -s 0 -d -1 -p tcp -e 1040 -c 2 -a 0 -i 37 -k AGT
h -t 15.527951217 -s 0 -d -1 -p tcp -e 1040 -c 2 -a 0 -i 37 -k AGT
+ -t 15.527951217 -s 0 -d 4 -p tcp -e 1060 -c 2 -a 0 -i 36 -k RTR 
- -t 15.527951217 -s 0 -d 4 -p tcp -e 1060 -c 2 -a 0 -i 36 -k RTR
h -t 15.527951217 -s 0 -d 4 -p tcp -e 1060 -c 2 -a 0 -i 36 -k RTR
+ -t 15.527951217 -s 0 -d 4 -p tcp -e 1060 -c 2 -a 0 -i 37 -k RTR 
- -t 15.527951217 -s 0 -d 4 -p tcp -e 1060 -c 2 -a 0 -i 37 -k RTR
h -t 15.527951217 -s 0 -d 4 -p tcp -e 1060 -c 2 -a 0 -i 37 -k RTR
+ -t 15.538049453 -s 4 -d 7 -p tcp -e 1060 -c 2 -a 0 -i 28 -k RTR 
- -t 15.538049453 -s 4 -d 7 -p tcp -e 1060 -c 2 -a 0 -i 28 -k RTR
h -t 15.538049453 -s 4 -d 7 -p tcp -e 1060 -c 2 -a 0 -i 28 -k RTR
+ -t 15.540156650 -s 4 -d 0 -p ack -e 60 -c 2 -a 0 -i 32 -k RTR 
- -t 15.540156650 -s 4 -d 0 -p ack -e 60 -c 2 -a 0 -i 32 -k RTR
h -t 15.540156650 -s 4 -d 0 -p ack -e 60 -c 2 -a 0 -i 32 -k RTR
+ -t 15.550153650 -s 7 -d 10 -p tcp -e 1060 -c 2 -a 0 -i 27 -k RTR 
- -t 15.550153650 -s 7 -d 10 -p tcp -e 1060 -c 2 -a 0 -i 27 -k RTR
h -t 15.550153650 -s 7 -d 10 -p tcp -e 1060 -c 2 -a 0 -i 27 -k RTR
r -t 15.560131650 -s 10 -d 10 -p tcp -e 1040 -c 2 -a 0 -i 24 -k AGT
+ -t 15.560131650 -s 10 -d -1 -p ack -e 40 -c 2 -a 0 -i 38 -k AGT 
- -t 15.560131650 -s 10 -d -1 -p ack -e 40 -c 2 -a 0 -i 38 -k AGT
h -t 15.560131650 -s 10 -d -1 -p ack -e 40 -c 2 -a 0 -i 38 -k AGT