n -t * -s 0  -x 272 -y 186 -Z 0 -z 30  -v circle -c black
n -t * -s 1  -x 392 -y 68 -Z 0 -z 30  -v circle -c black
n -t * -s 2  -x 310 -y 310 -Z 0 -z 30  -v circle -c black
n -t * -s 3  -x 210 -y 497 -Z 0 -z 30  -v circle -c black
n -t * -s 4  -x 87 -y 351 -Z 0 -z 30  -v circle -c black
n -t * -s 5  -x 35 -y 145 -Z 0 -z 30  -v circle -c black
n -t * -s 6  -x 300 -y 453 -Z 0 -z 30  -v circle -c black
n -t * -s 7  -x 350 -y 105 -Z 0 -z 30  -v circle -c black
V -t * -v 1.0a5 -a 0
W -t * -x 500 -y 500
A -t * -n 1 -p 0 -o 0xffffffff -c 31 -a 1
A -t * -h 1 -m 2147483647 -s 0
+ -t 15.000000000 -s 1 -d -1 -p cbr -e 512 -c 2 -a 0 -i 0 -k AGT 
- -t 15.000000000 -s 1 -d -1 -p cbr -e 512 -c 2 -a 0 -i 0 -k AGT
h -t 15.000000000 -s 1 -d -1 -p cbr -e 512 -c 2 -a 0 -i 0 -k AGT
+ -t 15.000000000 -s 5 -d -1 -p cbr -e 512 -c 2 -a 0 -i 2 -k AGT 
- -t 15.000000000 -s 5 -d -1 -p cbr -e 512 -c 2 -a 0 -i 2 -k AGT
h -t 15.000000000 -s 5 -d -1 -p cbr -e 512 -c 2 -a 0 -i 2 -k AGT
+ -t 15.004007305 -s 5 -d -1 -p DSR -e 32 -c 2 -a 0 -i 3 -k RTR 
- -t 15.004007305 -s 5 -d -1 -p DSR -e 32 -c 2 -a 0 -i 3 -k RTR
h -t 15.004007305 -s 5 -d -1 -p DSR -e 32 -c 2 -a 0 -i 3 -k RTR
+ -t 15.005035754 -s 1 -d -1 -p DSR -e 32 -c 2 -a 0 -i 1 -k RTR 
- -t 15.005035754 -s 1 -d -1 -p DSR -e 32 -c 2 -a 0 -i 1 -k RTR
h -t 15.005035754 -s 1 -d -1 -p DSR -e 32 -c 2 -a 0 -i 1 -k RTR
+ -t 15.043241224 -s 5 -d -1 -p DSR -e 32 -c 2 -a 0 -i 5 -k RTR 
- -t 15.043241224 -s 5 -d -1 -p DSR -e 32 -c 2 -a 0 -i 5 -k RTR
h -t 15.043241224 -s 5 -d -1 -p DSR -e 32 -c 2 -a 0 -i 5 -k RTR
+ -t 15.045124097 -s 0 -d -1 -p DSR -e 48 -c 2 -a 0 -i 5 -k RTR 
- -t 15.045124097 -s 0 -d -1 -p DSR -e 48 -c 2 -a 0 -i 5 -k RTR
h -t 15.045124097 -s 0 -d -1 -p DSR -e 48 -c 2 -a 0 -i 5 -k RTR
+ -t 15.046655124 -s 2 -d -1 -p DSR -e 68 -c 2 -a 0 -i 5 -k RTR 
- -t 15.046655124 -s 2 -d -1 -p DSR -e 68 -c 2 -a 0 -i 5 -k RTR
h -t 15.046655124 -s 2 -d -1 -p DSR -e 68 -c 2 -a 0 -i 5 -k RTR
+ -t 15.047881189 -s 7 -d -1 -p DSR -e 68 -c 2 -a 0 -i 5 -k RTR 
- -t 15.047881189 -s 7 -d -1 -p DSR -e 68 -c 2 -a 0 -i 5 -k RTR
h -t 15.047881189 -s 7 -d -1 -p DSR -e 68 -c 2 -a 0 -i 5 -k RTR
+ -t 15.048460104 -s 6 -d -1 -p DSR -e 92 -c 2 -a 0 -i 5 -k RTR 
- -t 15.048460104 -s 6 -d -1 -p DSR -e 92 -c 2 -a 0 -i 5 -k RTR
h -t 15.048460104 -s 6 -d -1 -p DSR -e 92 -c 2 -a 0 -i 5 -k RTR
+ -t 15.049008136 -s 1 -d -1 -p DSR -e 68 -c 2 -a 0 -i 5 -k RTR 
- -t 15.049008136 -s 1 -d -1 -p DSR -e 68 -c 2 -a 0 -i 5 -k RTR
h -t 15.049008136 -s 1 -d -1 -p DSR -e 68 -c 2 -a 0 -i 5 -k RTR
+ -t 15.052647076 -s 4 -d -1 -p DSR -e 48 -c 2 -a 0 -i 5 -k RTR 
- -t 15.052647076 -s 4 -d -1 -p DSR -e 48 -c 2 -a 0 -i 5 -k RTR
h -t 15.052647076 -s 4 -d -1 -p DSR -e 48 -c 2 -a 0 -i 5 -k RTR
+ -t 15.052856003 -s 3 -d 2 -p DSR -e 60 -c 2 -a 0 -i 6 -k RTR 
- -t 15.052856003 -s 3 -d 2 -p DSR -e 60 -c 2 -a 0 -i 6 -k RTR
h -t 15.052856003 -s 3 -d 2 -p DSR -e 60 -c 2 -a 0 -i 6 -k RTR
+ -t 15.053525210 -s 5 -d -1 -p cbr -e 512 -c 2 -a 0 -i 8 -k AGT 
- -t 15.053525210 -s 5 -d -1 -p cbr -e 512 -c 2 -a 0 -i 8 -k AGT
h -t 15.053525210 -s 5 -d -1 -p cbr -e 512 -c 2 -a 0 -i 8 -k AGT
+ -t 15.054106129 -s 1 -d -1 -p cbr -e 512 -c 2 -a 0 -i 11 -k AGT 
- -t 15.054106129 -s 1 -d -1 -p cbr -e 512 -c 2 -a 0 -i 11 -k AGT
h -t 15.054106129 -s 1 -d -1 -p cbr -e 512 -c 2 -a 0 -i 11 -k AGT
+ -t 15.055711833 -s 2 -d 0 -p DSR -e 60 -c 2 -a 0 -i 6 -k RTR 
- -t 15.055711833 -s 2 -d 0 -p DSR -e 60 -c 2 -a 0 -i 6 -k RTR
h -t 15.055711833 -s 2 -d 0 -p DSR -e 60 -c 2 -a 0 -i 6 -k RTR
+ -t 15.057423841 -s 3 -d 4 -p DSR -e 52 -c 2 -a 0 -i 10 -k RTR 
- -t 15.057423841 -s 3 -d 4 -p DSR -e 52 -c 2 -a 0 -i 10 -k RTR
h -t 15.057423841 -s 3 -d 4 -p DSR -e 52 -c 2 -a 0 -i 10 -k RTR
+ -t 15.058169130 -s 0 -d 5 -p DSR -e 60 -c 2 -a 0 -i 6 -k RTR 
- -t 15.058169130 -s 0 -d 5 -p DSR -e 60 -c 2 -a 0 -i 6 -k RTR
h -t 15.058169130 -s 0 -d 5 -p DSR -e 60 -c 2 -a 0 -i 6 -k RTR
+ -t 15.058207895 -s 3 -d 6 -p DSR -e 68 -c 2 -a 0 -i 7 -k RTR 
- -t 15.058207895 -s 3 -d 6 -p DSR -e 68 -c 2 -a 0 -i 7 -k RTR
h -t 15.058207895 -s 3 -d 6 -p DSR -e 68 -c 2 -a 0 -i 7 -k RTR
+ -t 15.060347535 -s 5 -d 0 -p cbr -e 556 -c 2 -a 0 -i 2 -k RTR 
- -t 15.060347535 -s 5 -d 0 -p cbr -e 556 -c 2 -a 0 -i 2 -k RTR
h -t 15.060347535 -s 5 -d 0 -p cbr -e 556 -c 2 -a 0 -i 2 -k RTR
+ -t 15.060363371 -s 1 -d -1 -p DSR -e 32 -c 2 -a 0 -i 12 -k RTR 
- -t 15.060363371 -s 1 -d -1 -p DSR -e 32 -c 2 -a 0 -i 12 -k RTR
h -t 15.060363371 -s 1 -d -1 -p DSR -e 32 -c 2 -a 0 -i 12 -k RTR
+ -t 15.062626754 -s 4 -d 5 -p DSR -e 52 -c 2 -a 0 -i 10 -k RTR 
- -t 15.062626754 -s 4 -d 5 -p DSR -e 52 -c 2 -a 0 -i 10 -k RTR
h -t 15.062626754 -s 4 -d 5 -p DSR -e 52 -c 2 -a 0 -i 10 -k RTR
+ -t 15.070607284 -s 0 -d 2 -p cbr -e 556 -c 2 -a 0 -i 2 -k RTR 
- -t 15.070607284 -s 0 -d 2 -p cbr -e 556 -c 2 -a 0 -i 2 -k RTR
h -t 15.070607284 -s 0 -d 2 -p cbr -e 556 -c 2 -a 0 -i 2 -k RTR
+ -t 15.071734261 -s 0 -d 1 -p DSR -e 52 -c 2 -a 0 -i 15 -k RTR 
- -t 15.071734261 -s 0 -d 1 -p DSR -e 52 -c 2 -a 0 -i 15 -k RTR
h -t 15.071734261 -s 0 -d 1 -p DSR -e 52 -c 2 -a 0 -i 15 -k RTR
+ -t 15.074170745 -s 7 -d -1 -p DSR -e 48 -c 2 -a 0 -i 12 -k RTR 
- -t 15.074170745 -s 7 -d -1 -p DSR -e 48 -c 2 -a 0 -i 12 -k RTR
h -t 15.074170745 -s 7 -d -1 -p DSR -e 48 -c 2 -a 0 -i 12 -k RTR
+ -t 15.077705558 -s 2 -d 3 -p cbr -e 556 -c 2 -a 0 -i 2 -k RTR 
- -t 15.077705558 -s 2 -d 3 -p cbr -e 556 -c 2 -a 0 -i 2 -k RTR
h -t 15.077705558 -s 2 -d 3 -p cbr -e 556 -c 2 -a 0 -i 2 -k RTR
r -t 15.083611678 -s 3 -d 3 -p cbr -e 512 -c 2 -a 0 -i 2 -k AGT
+ -t 15.085692680 -s 6 -d 2 -p DSR -e 68 -c 2 -a 0 -i 7 -k RTR 
- -t 15.085692680 -s 6 -d 2 -p DSR -e 68 -c 2 -a 0 -i 7 -k RTR
h -t 15.085692680 -s 6 -d 2 -p DSR -e 68 -c 2 -a 0 -i 7 -k RTR
+ -t 15.086388463 -s 5 -d -1 -p cbr -e 512 -c 2 -a 0 -i 16 -k AGT 
- -t 15.086388463 -s 5 -d -1 -p cbr -e 512 -c 2 -a 0 -i 16 -k AGT
h -t 15.086388463 -s 5 -d -1 -p cbr -e 512 -c 2 -a 0 -i 16 -k AGT
+ -t 15.086388463 -s 5 -d 4 -p cbr -e 552 -c 2 -a 0 -i 16 -k RTR 
- -t 15.086388463 -s 5 -d 4 -p cbr -e 552 -c 2 -a 0 -i 16 -k RTR
h -t 15.086388463 -s 5 -d 4 -p cbr -e 552 -c 2 -a 0 -i 16 -k RTR
+ -t 15.088254113 -s 2 -d 0 -p DSR -e 68 -c 2 -a 0 -i 7 -k RTR 
- -t 15.088254113 -s 2 -d 0 -p DSR -e 68 -c 2 -a 0 -i 7 -k RTR
h -t 15.088254113 -s 2 -d 0 -p DSR -e 68 -c 2 -a 0 -i 7 -k RTR
+ -t 15.090347535 -s 5 -d 0 -p cbr -e 556 -c 2 -a 0 -i 8 -k RTR 
- -t 15.090347535 -s 5 -d 0 -p cbr -e 556 -c 2 -a 0 -i 8 -k RTR
h -t 15.090347535 -s 5 -d 0 -p cbr -e 556 -c 2 -a 0 -i 8 -k RTR
+ -t 15.090395410 -s 0 -d 5 -p DSR -e 68 -c 2 -a 0 -i 7 -k RTR 
- -t 15.090395410 -s 0 -d 5 -p DSR -e 68 -c 2 -a 0 -i 7 -k RTR
h -t 15.090395410 -s 0 -d 5 -p DSR -e 68 -c 2 -a 0 -i 7 -k RTR
+ -t 15.093605875 -s 1 -d 0 -p cbr -e 556 -c 2 -a 0 -i 0 -k RTR 
- -t 15.093605875 -s 1 -d 0 -p cbr -e 556 -c 2 -a 0 -i 0 -k RTR
h -t 15.093605875 -s 1 -d 0 -p cbr -e 556 -c 2 -a 0 -i 0 -k RTR
+ -t 15.093605875 -s 1 -d 0 -p cbr -e 556 -c 2 -a 0 -i 11 -k RTR 
- -t 15.093605875 -s 1 -d 0 -p cbr -e 556 -c 2 -a 0 -i 11 -k RTR
h -t 15.093605875 -s 1 -d 0 -p cbr -e 556 -c 2 -a 0 -i 11 -k RTR
+ -t 15.096380172 -s 4 -d 3 -p cbr -e 552 -c 2 -a 0 -i 16 -k RTR 
- -t 15.096380172 -s 4 -d 3 -p cbr -e 552 -c 2 -a 0 -i 16 -k RTR
h -t 15.096380172 -s 4 -d 3 -p cbr -e 552 -c 2 -a 0 -i 16 -k RTR
+ -t 15.099599564 -s 2 -d 7 -p DSR -e 56 -c 2 -a 0 -i 17 -k RTR 
- -t 15.099599564 -s 2 -d 7 -p DSR -e 56 -c 2 -a 0 -i 17 -k RTR
h -t 15.099599564 -s 2 -d 7 -p DSR -e 56 -c 2 -a 0 -i 17 -k RTR
+ -t 15.105490737 -s 0 -d 2 -p cbr -e 556 -c 2 -a 0 -i 0 -k RTR 
- -t 15.105490737 -s 0 -d 2 -p cbr -e 556 -c 2 -a 0 -i 0 -k RTR
h -t 15.105490737 -s 0 -d 2 -p cbr -e 556 -c 2 -a 0 -i 0 -k RTR
+ -t 15.111487799 -s 0 -d 2 -p cbr -e 556 -c 2 -a 0 -i 8 -k RTR 
- -t 15.111487799 -s 0 -d 2 -p cbr -e 556 -c 2 -a 0 -i 8 -k RTR
h -t 15.111487799 -s 0 -d 2 -p cbr -e 556 -c 2 -a 0 -i 8 -k RTR
r -t 15.119784821 -s 3 -d 3 -p cbr -e 512 -c 2 -a 0 -i 16 -k AGT
+ -t 15.122011617 -s 7 -d 1 -p DSR -e 56 -c 2 -a 0 -i 17 -k RTR 
- -t 15.122011617 -s 7 -d 1 -p DSR -e 56 -c 2 -a 0 -i 17 -k RTR
h -t 15.122011617 -s 7 -d 1 -p DSR -e 56 -c 2 -a 0 -i 17 -k RTR
+ -t 15.127998491 -s 1 -d -1 -p cbr -e 512 -c 2 -a 0 -i 18 -k AGT 
- -t 15.127998491 -s 1 -d -1 -p cbr -e 512 -c 2 -a 0 -i 18 -k AGT
h -t 15.127998491 -s 1 -d -1 -p cbr -e 512 -c 2 -a 0 -i 18 -k AGT
+ -t 15.127998491 -s 1 -d 0 -p cbr -e 556 -c 2 -a 0 -i 18 -k RTR 
- -t 15.127998491 -s 1 -d 0 -p cbr -e 556 -c 2 -a 0 -i 18 -k RTR
h -t 15.127998491 -s 1 -d 0 -p cbr -e 556 -c 2 -a 0 -i 18 -k RTR
+ -t 15.128057288 -s 2 -d 3 -p cbr -e 556 -c 2 -a 0 -i 0 -k RTR 
- -t 15.128057288 -s 2 -d 3 -p cbr -e 556 -c 2 -a 0 -i 0 -k RTR
h -t 15.128057288 -s 2 -d 3 -p cbr -e 556 -c 2 -a 0 -i 0 -k RTR
+ -t 15.135968227 -s 0 -d 2 -p cbr -e 556 -c 2 -a 0 -i 11 -k RTR 
- -t 15.135968227 -s 0 -d 2 -p cbr -e 556 -c 2 -a 0 -i 11 -k RTR
h -t 15.135968227 -s 0 -d 2 -p cbr -e 556 -c 2 -a 0 -i 11 -k RTR
+ -t 15.142014471 -s 0 -d 2 -p cbr -e 556 -c 2 -a 0 -i 18 -k RTR 
- -t 15.142014471 -s 0 -d 2 -p cbr -e 556 -c 2 -a 0 -i 18 -k RTR
h -t 15.142014471 -s 0 -d 2 -p cbr -e 556 -c 2 -a 0 -i 18 -k RTR
+ -t 15.142736867 -s 5 -d -1 -p cbr -e 512 -c 2 -a 0 -i 19 -k AGT 
- -t 15.142736867 -s 5 -d -1 -p cbr -e 512 -c 2 -a 0 -i 19 -k AGT
h -t 15.142736867 -s 5 -d -1 -p cbr -e 512 -c 2 -a 0 -i 19 -k AGT
+ -t 15.142736867 -s 5 -d 4 -p cbr -e 552 -c 2 -a 0 -i 19 -k RTR 
- -t 15.142736867 -s 5 -d 4 -p cbr -e 552 -c 2 -a 0 -i 19 -k RTR
h -t 15.142736867 -s 5 -d 4 -p cbr -e 552 -c 2 -a 0 -i 19 -k RTR
+ -t 15.148019768 -s 2 -d 3 -p cbr -e 556 -c 2 -a 0 -i 8 -k RTR 
- -t 15.148019768 -s 2 -d 3 -p cbr -e 556 -c 2 -a 0 -i 8 -k RTR
h -t 15.148019768 -s 2 -d 3 -p cbr -e 556 -c 2 -a 0 -i 8 -k RTR
r -t 15.154205889 -s 3 -d 3 -p cbr -e 512 -c 2 -a 0 -i 0 -k AGT
r -t 15.160392716 -s 3 -d 3 -p cbr -e 512 -c 2 -a 0 -i 8 -k AGT
+ -t 15.166703070 -s 2 -d 3 -p cbr -e 556 -c 2 -a 0 -i 11 -k RTR 
- -t 15.166703070 -s 2 -d 3 -p cbr -e 556 -c 2 -a 0 -i 11 -k RTR
h -t 15.166703070 -s 2 -d 3 -p cbr -e 556 -c 2 -a 0 -i 11 -k RTR
+ -t 15.170266776 -s 1 -d -1 -p cbr -e 512 -c 2 -a 0 -i 20 -k AGT 
- -t 15.170266776 -s 1 -d -1 -p cbr -e 512 -c 2 -a 0 -i 20 -k AGT
h -t 15.170266776 -s 1 -d -1 -p cbr -e 512 -c 2 -a 0 -i 20 -k AGT
+ -t 15.170266776 -s 1 -d 0 -p cbr -e 532 -c 2 -a 0 -i 20 -k RTR 
- -t 15.170266776 -s 1 -d 0 -p cbr -e 532 -c 2 -a 0 -i 20 -k RTR
h -t 15.170266776 -s 1 -d 0 -p cbr -e 532 -c 2 -a 0 -i 20 -k RTR
+ -t 15.172648799 -s 2 -d 3 -p cbr -e 556 -c 2 -a 0 -i 18 -k RTR 
- -t 15.172648799 -s 2 -d 3 -p cbr -e 556 -c 2 -a 0 -i 18 -k RTR
h -t 15.172648799 -s 2 -d 3 -p cbr -e 556 -c 2 -a 0 -i 18 -k RTR
r -t 15.178954920 -s 3 -d 3 -p cbr -e 512 -c 2 -a 0 -i 11 -k AGT
r -t 15.185161748 -s 3 -d 3 -p cbr -e 512 -c 2 -a 0 -i 18 -k AGT
+ -t 15.191300984 -s 0 -d 2 -p cbr -e 532 -c 2 -a 0 -i 20 -k RTR 
- -t 15.191300984 -s 0 -d 2 -p cbr -e 532 -c 2 -a 0 -i 20 -k RTR
h -t 15.191300984 -s 0 -d 2 -p cbr -e 532 -c 2 -a 0 -i 20 -k RTR
+ -t 15.197074281 -s 2 -d 3 -p cbr -e 532 -c 2 -a 0 -i 20 -k RTR 
- -t 15.197074281 -s 2 -d 3 -p cbr -e 532 -c 2 -a 0 -i 20 -k RTR
h -t 15.197074281 -s 2 -d 3 -p cbr -e 532 -c 2 -a 0 -i 20 -k RTR
r -t 15.203028401 -s 3 -d 3 -p cbr -e 512 -c 2 -a 0 -i 20 -k AGT
+ -t 15.209747836 -s 4 -d 3 -p cbr -e 552 -c 2 -a 0 -i 19 -k RTR 
- -t 15.209747836 -s 4 -d 3 -p cbr -e 552 -c 2 -a 0 -i 19 -k RTR
h -t 15.209747836 -s 4 -d 3 -p cbr -e 552 -c 2 -a 0 -i 19 -k RTR
+ -t 15.212523664 -s 5 -d -1 -p cbr -e 512 -c 2 -a 0 -i 21 -k AGT 
- -t 15.212523664 -s 5 -d -1 -p cbr -e 512 -c 2 -a 0 -i 21 -k AGT
h -t 15.212523664 -s 5 -d -1 -p cbr -e 512 -c 2 -a 0 -i 21 -k AGT
+ -t 15.212523664 -s 5 -d 4 -p cbr -e 552 -c 2 -a 0 -i 21 -k RTR 
- -t 15.212523664 -s 5 -d 4 -p cbr -e 552 -c 2 -a 0 -i 21 -k RTR
h -t 15.212523664 -s 5 -d 4 -p cbr -e 552 -c 2 -a 0 -i 21 -k RTR
r -t 15.216101745 -s 3 -d 3 -p cbr -e 512 -c 2 -a 0 -i 19 -k AGT
+ -t 15.222429447 -s 1 -d -1 -p cbr -e 512 -c 2 -a 0 -i 22 -k AGT 
- -t 15.222429447 -s 1 -d -1 -p cbr -e 512 -c 2 -a 0 -i 22 -k AGT
h -t 15.222429447 -s 1 -d -1 -p cbr -e 512 -c 2 -a 0 -i 22 -k AGT
+ -t 15.222429447 -s 1 -d 0 -p cbr -e 532 -c 2 -a 0 -i 22 -k RTR 
- -t 15.222429447 -s 1 -d 0 -p cbr -e 532 -c 2 -a 0 -i 22 -k RTR
h -t 15.222429447 -s 1 -d 0 -p cbr -e 532 -c 2 -a 0 -i 22 -k RTR
+ -t 15.222921180 -s 4 -d 3 -p cbr -e 552 -c 2 -a 0 -i 21 -k RTR 
- -t 15.222921180 -s 4 -d 3 -p cbr -e 552 -c 2 -a 0 -i 21 -k RTR
h -t 15.222921180 -s 4 -d 3 -p cbr -e 552 -c 2 -a 0 -i 21 -k RTR
r -t 15.228875089 -s 3 -d 3 -p cbr -e 512 -c 2 -a 0 -i 21 -k AGT
+ -t 15.235474326 -s 0 -d 2 -p cbr -e 532 -c 2 -a 0 -i 22 -k RTR 
- -t 15.235474326 -s 0 -d 2 -p cbr -e 532 -c 2 -a 0 -i 22 -k RTR
h -t 15.235474326 -s 0 -d 2 -p cbr -e 532 -c 2 -a 0 -i 22 -k RTR
+ -t 15.241267623 -s 2 -d 3 -p cbr -e 532 -c 2 -a 0 -i 22 -k RTR 
- -t 15.241267623 -s 2 -d 3 -p cbr -e 532 -c 2 -a 0 -i 22 -k RTR
h -t 15.241267623 -s 2 -d 3 -p cbr -e 532 -c 2 -a 0 -i 22 -k RTR
r -t 15.247401743 -s 3 -d 3 -p cbr -e 512 -c 2 -a 0 -i 22 -k AGT
+ -t 15.270113167 -s 5 -d -1 -p cbr -e 512 -c 2 -a 0 -i 23 -k AGT 
- -t 15.270113167 -s 5 -d -1 -p cbr -e 512 -c 2 -a 0 -i 23 -k AGT
h -t 15.270113167 -s 5 -d -1 -p cbr -e 512 -c 2 -a 0 -i 23 -k AGT
+ -t 15.270113167 -s 5 -d 4 -p cbr -e 532 -c 2 -a 0 -i 23 -k RTR 
- -t 15.270113167 -s 5 -d 4 -p cbr -e 532 -c 2 -a 0 -i 23 -k RTR
h -t 15.270113167 -s 5 -d 4 -p cbr -e 532 -c 2 -a 0 -i 23 -k RTR
+ -t 15.275823291 -s 4 -d 3 -p cbr -e 532 -c 2 -a 0 -i 23 -k RTR 
- -t 15.275823291 -s 4 -d 3 -p cbr -e 532 -c 2 -a 0 -i 23 -k RTR
h -t 15.275823291 -s 4 -d 3 -p cbr -e 532 -c 2 -a 0 -i 23 -k RTR
r -t 15.282017200 -s 3 -d 3 -p cbr -e 512 -c 2 -a 0 -i 23 -k AGT
+ -t 15.282779626 -s 1 -d -1 -p cbr -e 512 -c 2 -a 0 -i 24 -k AGT 
- -t 15.282779626 -s 1 -d -1 -p cbr -e 512 -c 2 -a 0 -i 24 -k AGT
h -t 15.282779626 -s 1 -d -1 -p cbr -e 512 -c 2 -a 0 -i 24 -k AGT
+ -t 15.282779626 -s 1 -d 0 -p cbr -e 532 -c 2 -a 0 -i 24 -k RTR 
- -t 15.282779626 -s 1 -d 0 -p cbr -e 532 -c 2 -a 0 -i 24 -k RTR
h -t 15.282779626 -s 1 -d 0 -p cbr -e 532 -c 2 -a 0 -i 24 -k RTR
+ -t 15.288229309 -s 0 -d 2 -p cbr -e 532 -c 2 -a 0 -i 24 -k RTR 
- -t 15.288229309 -s 0 -d 2 -p cbr -e 532 -c 2 -a 0 -i 24 -k RTR
h -t 15.288229309 -s 0 -d 2 -p cbr -e 532 -c 2 -a 0 -i 24 -k RTR
+ -t 15.294142606 -s 2 -d 3 -p cbr -e 532 -c 2 -a 0 -i 24 -k RTR 
- -t 15.294142606 -s 2 -d 3 -p cbr -e 532 -c 2 -a 0 -i 24 -k RTR
h -t 15.294142606 -s 2 -d 3 -p cbr -e 532 -c 2 -a 0 -i 24 -k RTR
r -t 15.300356726 -s 3 -d 3 -p cbr -e 512 -c 2 -a 0 -i 24 -k AGT
+ -t 15.324752283 -s 5 -d -1 -p cbr -e 512 -c 2 -a 0 -i 25 -k AGT 
- -t 15.324752283 -s 5 -d -1 -p cbr -e 512 -c 2 -a 0 -i 25 -k AGT
h -t 15.324752283 -s 5 -d -1 -p cbr -e 512 -c 2 -a 0 -i 25 -k AGT
+ -t 15.324752283 -s 5 -d 4 -p cbr -e 532 -c 2 -a 0 -i 25 -k RTR 
- -t 15.324752283 -s 5 -d 4 -p cbr -e 532 -c 2 -a 0 -i 25 -k RTR
h -t 15.324752283 -s 5 -d 4 -p cbr -e 532 -c 2 -a 0 -i 25 -k RTR
+ -t 15.330382408 -s 4 -d 3 -p cbr -e 532 -c 2 -a 0 -i 25 -k RTR 
- -t 15.330382408 -s 4 -d 3 -p cbr -e 532 -c 2 -a 0 -i 25 -k RTR
h -t 15.330382408 -s 4 -d 3 -p cbr -e 532 -c 2 -a 0 -i 25 -k RTR
r -t 15.336596317 -s 3 -d 3 -p cbr -e 512 -c 2 -a 0 -i 25 -k AGT
+ -t 15.352167465 -s 1 -d -1 -p cbr -e 512 -c 2 -a 0 -i 26 -k AGT 
- -t 15.352167465 -s 1 -d -1 -p cbr -e 512 -c 2 -a 0 -i 26 -k AGT
h -t 15.352167465 -s 1 -d -1 -p cbr -e 512 -c 2 -a 0 -i 26 -k AGT
+ -t 15.352167465 -s 1 -d 0 -p cbr -e 532 -c 2 -a 0 -i 26 -k RTR 
- -t 15.352167465 -s 1 -d 0 -p cbr -e 532 -c 2 -a 0 -i 26 -k RTR
h -t 15.352167465 -s 1 -d 0 -p cbr -e 532 -c 2 -a 0 -i 26 -k RTR
+ -t 15.357777148 -s 0 -d 2 -p cbr -e 532 -c 2 -a 0 -i 26 -k RTR 
- -t 15.357777148 -s 0 -d 2 -p cbr -e 532 -c 2 -a 0 -i 26 -k RTR
h -t 15.357777148 -s 0 -d 2 -p cbr -e 532 -c 2 -a 0 -i 26 -k RTR
+ -t 15.364070445 -s 2 -d 3 -p cbr -e 532 -c 2 -a 0 -i 26 -k RTR 
- -t 15.364070445 -s 2 -d 3 -p cbr -e 532 -c 2 -a 0 -i 26 -k RTR
h -t 15.364070445 -s 2 -d 3 -p cbr -e 532 -c 2 -a 0 -i 26 -k RTR
+ -t 15.369914946 -s 5 -d -1 -p cbr -e 512 -c 2 -a 0 -i 27 -k AGT 
- -t 15.369914946 -s 5 -d -1 -p cbr -e 512 -c 2 -a 0 -i 27 -k AGT
h -t 15.369914946 -s 5 -d -1 -p cbr -e 512 -c 2 -a 0 -i 27 -k AGT
+ -t 15.369914946 -s 5 -d 4 -p cbr -e 532 -c 2 -a 0 -i 27 -k RTR 
- -t 15.369914946 -s 5 -d 4 -p cbr -e 532 -c 2 -a 0 -i 27 -k RTR
h -t 15.369914946 -s 5 -d 4 -p cbr -e 532 -c 2 -a 0 -i 27 -k RTR
r -t 15.370204566 -s 3 -d 3 -p cbr -e 512 -c 2 -a 0 -i 26 -k AGT
+ -t 15.376444001 -s 4 -d 3 -p cbr -e 532 -c 2 -a 0 -i 27 -k RTR 
- -t 15.376444001 -s 4 -d 3 -p cbr -e 532 -c 2 -a 0 -i 27 -k RTR
h -t 15.376444001 -s 4 -d 3 -p cbr -e 532 -c 2 -a 0 -i 27 -k RTR
+ -t 15.379641715 -s 1 -d -1 -p cbr -e 512 -c 2 -a 0 -i 28 -k AGT 
- -t 15.379641715 -s 1 -d -1 -p cbr -e 512 -c 2 -a 0 -i 28 -k AGT
h -t 15.379641715 -s 1 -d -1 -p cbr -e 512 -c 2 -a 0 -i 28 -k AGT
+ -t 15.379641715 -s 1 -d 0 -p cbr -e 532 -c 2 -a 0 -i 28 -k RTR 
- -t 15.379641715 -s 1 -d 0 -p cbr -e 532 -c 2 -a 0 -i 28 -k RTR
h -t 15.379641715 -s 1 -d 0 -p cbr -e 532 -c 2 -a 0 -i 28 -k RTR
r -t 15.382377910 -s 3 -d 3 -p cbr -e 512 -c 2 -a 0 -i 27 -k AGT
+ -t 15.388597146 -s 0 -d 2 -p cbr -e 532 -c 2 -a 0 -i 28 -k RTR 
- -t 15.388597146 -s 0 -d 2 -p cbr -e 532 -c 2 -a 0 -i 28 -k RTR
h -t 15.388597146 -s 0 -d 2 -p cbr -e 532 -c 2 -a 0 -i 28 -k RTR
+ -t 15.394510443 -s 2 -d 3 -p cbr -e 532 -c 2 -a 0 -i 28 -k RTR 
- -t 15.394510443 -s 2 -d 3 -p cbr -e 532 -c 2 -a 0 -i 28 -k RTR
h -t 15.394510443 -s 2 -d 3 -p cbr -e 532 -c 2 -a 0 -i 28 -k RTR
r -t 15.400624564 -s 3 -d 3 -p cbr -e 512 -c 2 -a 0 -i 28 -k AGT
+ -t 15.417708070 -s 5 -d -1 -p cbr -e 512 -c 2 -a 0 -i 29 -k AGT 
- -t 15.417708070 -s 5 -d -1 -p cbr -e 512 -c 2 -a 0 -i 29 -k AGT
h -t 15.417708070 -s 5 -d -1 -p cbr -e 512 -c 2 -a 0 -i 29 -k AGT
+ -t 15.417708070 -s 5 -d 4 -p cbr -e 532 -c 2 -a 0 -i 29 -k RTR 
- -t 15.417708070 -s 5 -d 4 -p cbr -e 532 -c 2 -a 0 -i 29 -k RTR
h -t 15.417708070 -s 5 -d 4 -p cbr -e 532 -c 2 -a 0 -i 29 -k RTR
+ -t 15.418695531 -s 1 -d -1 -p cbr -e 512 -c 2 -a 0 -i 30 -k AGT 
- -t 15.418695531 -s 1 -d -1 -p cbr -e 512 -c 2 -a 0 -i 30 -k AGT
h -t 15.418695531 -s 1 -d -1 -p cbr -e 512 -c 2 -a 0 -i 30 -k AGT
+ -t 15.418695531 -s 1 -d 0 -p cbr -e 532 -c 2 -a 0 -i 30 -k RTR 
- -t 15.418695531 -s 1 -d 0 -p cbr -e 532 -c 2 -a 0 -i 30 -k RTR
h -t 15.418695531 -s 1 -d 0 -p cbr -e 532 -c 2 -a 0 -i 30 -k RTR
+ -t 15.423358194 -s 4 -d 3 -p cbr -e 532 -c 2 -a 0 -i 29 -k RTR 
- -t 15.423358194 -s 4 -d 3 -p cbr -e 532 -c 2 -a 0 -i 29 -k RTR
h -t 15.423358194 -s 4 -d 3 -p cbr -e 532 -c 2 -a 0 -i 29 -k RTR
r -t 15.429072103 -s 3 -d 3 -p cbr -e 512 -c 2 -a 0 -i 29 -k AGT
+ -t 15.435191340 -s 0 -d 2 -p cbr -e 532 -c 2 -a 0 -i 30 -k RTR 
- -t 15.435191340 -s 0 -d 2 -p cbr -e 532 -c 2 -a 0 -i 30 -k RTR
h -t 15.435191340 -s 0 -d 2 -p cbr -e 532 -c 2 -a 0 -i 30 -k RTR
+ -t 15.441444636 -s 2 -d 3 -p cbr -e 532 -c 2 -a 0 -i 30 -k RTR 
- -t 15.441444636 -s 2 -d 3 -p cbr -e 532 -c 2 -a 0 -i 30 -k RTR
h -t 15.441444636 -s 2 -d 3 -p cbr -e 532 -c 2 -a 0 -i 30 -k RTR
+ -t 15.445261185 -s 1 -d -1 -p cbr -e 512 -c 2 -a 0 -i 31 -k AGT 
- -t 15.445261185 -s 1 -d -1 -p cbr -e 512 -c 2 -a 0 -i 31 -k AGT
h -t 15.445261185 -s 1 -d -1 -p cbr -e 512 -c 2 -a 0 -i 31 -k AGT
+ -t 15.445261185 -s 1 -d 0 -p cbr -e 532 -c 2 -a 0 -i 31 -k RTR 
- -t 15.445261185 -s 1 -d 0 -p cbr -e 532 -c 2 -a 0 -i 31 -k RTR
h -t 15.445261185 -s 1 -d 0 -p cbr -e 532 -c 2 -a 0 -i 31 -k RTR
r -t 15.447198757 -s 3 -d 3 -p cbr -e 512 -c 2 -a 0 -i 30 -k AGT
+ -t 15.453577993 -s 0 -d 2 -p cbr -e 532 -c 2 -a 0 -i 31 -k RTR 
- -t 15.453577993 -s 0 -d 2 -p cbr -e 532 -c 2 -a 0 -i 31 -k RTR
h -t 15.453577993 -s 0 -d 2 -p cbr -e 532 -c 2 -a 0 -i 31 -k RTR
+ -t 15.459331290 -s 2 -d 3 -p cbr -e 532 -c 2 -a 0 -i 31 -k RTR 
- -t 15.459331290 -s 2 -d 3 -p cbr -e 532 -c 2 -a 0 -i 31 -k RTR
h -t 15.459331290 -s 2 -d 3 -p cbr -e 532 -c 2 -a 0 -i 31 -k RTR
r -t 15.465305411 -s 3 -d 3 -p cbr -e 512 -c 2 -a 0 -i 31 -k AGT
+ -t 15.474628318 -s 1 -d -1 -p cbr -e 512 -c 2 -a 0 -i 32 -k AGT 
- -t 15.474628318 -s 1 -d -1 -p cbr -e 512 -c 2 -a 0 -i 32 -k AGT
h -t 15.474628318 -s 1 -d -1 -p cbr -e 512 -c 2 -a 0 -i 32 -k AGT
+ -t 15.474628318 -s 1 -d 0 -p cbr -e 532 -c 2 -a 0 -i 32 -k RTR 
- -t 15.474628318 -s 1 -d 0 -p cbr -e 532 -c 2 -a 0 -i 32 -k RTR
h -t 15.474628318 -s 1 -d 0 -p cbr -e 532 -c 2 -a 0 -i 32 -k RTR
+ -t 15.480398001 -s 0 -d 2 -p cbr -e 532 -c 2 -a 0 -i 32 -k RTR 
- -t 15.480398001 -s 0 -d 2 -p cbr -e 532 -c 2 -a 0 -i 32 -k RTR
h -t 15.480398001 -s 0 -d 2 -p cbr -e 532 -c 2 -a 0 -i 32 -k RTR
+ -t 15.483002862 -s 5 -d -1 -p cbr -e 512 -c 2 -a 0 -i 33 -k AGT 
- -t 15.483002862 -s 5 -d -1 -p cbr -e 512 -c 2 -a 0 -i 33 -k AGT
h -t 15.483002862 -s 5 -d -1 -p cbr -e 512 -c 2 -a 0 -i 33 -k AGT
+ -t 15.483002862 -s 5 -d 4 -p cbr -e 532 -c 2 -a 0 -i 33 -k RTR 
- -t 15.483002862 -s 5 -d 4 -p cbr -e 532 -c 2 -a 0 -i 33 -k RTR
h -t 15.483002862 -s 5 -d 4 -p cbr -e 532 -c 2 -a 0 -i 33 -k RTR
+ -t 15.486671298 -s 2 -d 3 -p cbr -e 532 -c 2 -a 0 -i 32 -k RTR 
- -t 15.486671298 -s 2 -d 3 -p cbr -e 532 -c 2 -a 0 -i 32 -k RTR
h -t 15.486671298 -s 2 -d 3 -p cbr -e 532 -c 2 -a 0 -i 32 -k RTR
r -t 15.492465418 -s 3 -d 3 -p cbr -e 512 -c 2 -a 0 -i 32 -k AGT
+ -t 15.498984853 -s 4 -d 3 -p cbr -e 532 -c 2 -a 0 -i 33 -k RTR 
- -t 15.498984853 -s 4 -d 3 -p cbr -e 532 -c 2 -a 0 -i 33 -k RTR
h -t 15.498984853 -s 4 -d 3 -p cbr -e 532 -c 2 -a 0 -i 33 -k RTR
r -t 15.504818762 -s 3 -d 3 -p cbr -e 512 -c 2 -a 0 -i 33 -k AGT
+ -t 15.524562807 -s 5 -d -1 -p cbr -e 512 -c 2 -a 0 -i 34 -k AGT 
- -t 15.524562807 -s 5 -d -1 -p cbr -e 512 -c 2 -a 0 -i 34 -k AGT
h -t 15.524562807 -s 5 -d -1 -p cbr -e 512 -c 2 -a 0 -i 34 -k AGT
+ -t 15.524562807 -s 5 -d 4 -p cbr -e 532 -c 2 -a 0 -i 34 -k RTR 
- -t 15.524562807 -s 5 -d 4 -p cbr -e 532 -c 2 -a 0 -i 34 -k RTR
h -t 15.524562807 -s 5 -d 4 -p cbr -e 532 -c 2 -a 0 -i 34 -k RTR
+ -t 15.527356102 -s 1 -d -1 -p cbr -e 512 -c 2 -a 0 -i 35 -k AGT 
- -t 15.527356102 -s 1 -d -1 -p cbr -e 512 -c 2 -a 0 -i 35 -k AGT
h -t 15.527356102 -s 1 -d -1 -p cbr -e 512 -c 2 -a 0 -i 35 -k AGT
+ -t 15.527356102 -s 1 -d 0 -p cbr -e 532 -c 2 -a 0 -i 35 -k RTR 
- -t 15.527356102 -s 1 -d 0 -p cbr -e 532 -c 2 -a 0 -i 35 -k RTR
h -t 15.527356102 -s 1 -d 0 -p cbr -e 532 -c 2 -a 0 -i 35 -k RTR
+ -t 15.530512931 -s 4 -d 3 -p cbr -e 532 -c 2 -a 0 -i 34 -k RTR 
- -t 15.530512931 -s 4 -d 3 -p cbr -e 532 -c 2 -a 0 -i 34 -k RTR
h -t 15.530512931 -s 4 -d 3 -p cbr -e 532 -c 2 -a 0 -i 34 -k RTR
r -t 15.536346840 -s 3 -d 3 -p cbr -e 512 -c 2 -a 0 -i 34 -k AGT
+ -t 15.542546077 -s 0 -d 2 -p cbr -e 532 -c 2 -a 0 -i 35 -k RTR 
- -t 15.542546077 -s 0 -d 2 -p cbr -e 532 -c 2 -a 0 -i 35 -k RTR
h -t 15.542546077 -s 0 -d 2 -p cbr -e 532 -c 2 -a 0 -i 35 -k RTR
+ -t 15.548599374 -s 2 -d 3 -p cbr -e 532 -c 2 -a 0 -i 35 -k RTR 
- -t 15.548599374 -s 2 -d 3 -p cbr -e 532 -c 2 -a 0 -i 35 -k RTR
h -t 15.548599374 -s 2 -d 3 -p cbr -e 532 -c 2 -a 0 -i 35 -k RTR
r -t 15.554433494 -s 3 -d 3 -p cbr -e 512 -c 2 -a 0 -i 35 -k AGT
+ -t 15.577334277 -s 1 -d -1 -p cbr -e 512 -c 2 -a 0 -i 36 -k AGT 
- -t 15.577334277 -s 1 -d -1 -p cbr -e 512 -c 2 -a 0 -i 36 -k AGT
h -t 15.577334277 -s 1 -d -1 -p cbr -e 512 -c 2 -a 0 -i 36 -k AGT
+ -t 15.577334277 -s 1 -d 0 -p cbr -e 532 -c 2 -a 0 -i 36 -k RTR 
- -t 15.577334277 -s 1 -d 0 -p cbr -e 532 -c 2 -a 0 -i 36 -k RTR
h -t 15.577334277 -s 1 -d 0 -p cbr -e 532 -c 2 -a 0 -i 36 -k RTR
+ -t 15.583203960 -s 0 -d 2 -p cbr -e 532 -c 2 -a 0 -i 36 -k RTR 
- -t 15.583203960 -s 0 -d 2 -p cbr -e 532 -c 2 -a 0 -i 36 -k RTR
h -t 15.583203960 -s 0 -d 2 -p cbr -e 532 -c 2 -a 0 -i 36 -k RTR
+ -t 15.584683958 -s 5 -d -1 -p cbr -e 512 -c 2 -a 0 -i 37 -k AGT 
- -t 15.584683958 -s 5 -d -1 -p cbr -e 512 -c 2 -a 0 -i 37 -k AGT
h -t 15.584683958 -s 5 -d -1 -p cbr -e 512 -c 2 -a 0 -i 37 -k AGT
+ -t 15.584683958 -s 5 -d 4 -p cbr -e 532 -c 2 -a 0 -i 37 -k RTR 
- -t 15.584683958 -s 5 -d 4 -p cbr -e 532 -c 2 -a 0 -i 37 -k RTR
h -t 15.584683958 -s 5 -d 4 -p cbr -e 532 -c 2 -a 0 -i 37 -k RTR
+ -t 15.589137257 -s 2 -d 3 -p cbr -e 532 -c 2 -a 0 -i 36 -k RTR 
- -t 15.589137257 -s 2 -d 3 -p cbr -e 532 -c 2 -a 0 -i 36 -k RTR
h -t 15.589137257 -s 2 -d 3 -p cbr -e 532 -c 2 -a 0 -i 36 -k RTR
r -t 15.595271378 -s 3 -d 3 -p cbr -e 512 -c 2 -a 0 -i 36 -k AGT
+ -t 15.601670813 -s 4 -d 3 -p cbr -e 532 -c 2 -a 0 -i 37 -k RTR 
- -t 15.601670813 -s 4 -d 3 -p cbr -e 532 -c 2 -a 0 -i 37 -k RTR
h -t 15.601670813 -s 4 -d 3 -p cbr -e 532 -c 2 -a 0 -i 37 -k RTR
+ -t 15.606227025 -s 1 -d -1 -p cbr -e 512 -c 2 -a 0 -i 38 -k AGT 
- -t 15.606227025 -s 1 -d -1 -p cbr -e 512 -c 2 -a 0 -i 38 -k AGT
h -t 15.606227025 -s 1 -d -1 -p cbr -e 512 -c 2 -a 0 -i 38 -k AGT
+ -t 15.606227025 -s 1 -d 0 -p cbr -e 532 -c 2 -a 0 -i 38 -k RTR 
- -t 15.606227025 -s 1 -d 0 -p cbr -e 532 -c 2 -a 0 -i 38 -k RTR
h -t 15.606227025 -s 1 -d 0 -p cbr -e 532 -c 2 -a 0 -i 38 -k RTR
r -t 15.607984722 -s 3 -d 3 -p cbr -e 512 -c 2 -a 0 -i 37 -k AGT
+ -t 15.614663958 -s 0 -d 2 -p cbr -e 532 -c 2 -a 0 -i 38 -k RTR 
- -t 15.614663958 -s 0 -d 2 -p cbr -e 532 -c 2 -a 0 -i 38 -k RTR
h -t 15.614663958 -s 0 -d 2 -p cbr -e 532 -c 2 -a 0 -i 38 -k RTR
+ -t 15.615914577 -s 5 -d -1 -p cbr -e 512 -c 2 -a 0 -i 39 -k AGT 
- -t 15.615914577 -s 5 -d -1 -p cbr -e 512 -c 2 -a 0 -i 39 -k AGT
h -t 15.615914577 -s 5 -d -1 -p cbr -e 512 -c 2 -a 0 -i 39 -k AGT
+ -t 15.615914577 -s 5 -d 4 -p cbr -e 532 -c 2 -a 0 -i 39 -k RTR 
- -t 15.615914577 -s 5 -d 4 -p cbr -e 532 -c 2 -a 0 -i 39 -k RTR
h -t 15.615914577 -s 5 -d 4 -p cbr -e 532 -c 2 -a 0 -i 39 -k RTR
+ -t 15.620877255 -s 2 -d 3 -p cbr -e 532 -c 2 -a 0 -i 38 -k RTR 
- -t 15.620877255 -s 2 -d 3 -p cbr -e 532 -c 2 -a 0 -i 38 -k RTR
h -t 15.620877255 -s 2 -d 3 -p cbr -e 532 -c 2 -a 0 -i 38 -k RTR
r -t 15.626891375 -s 3 -d 3 -p cbr -e 512 -c 2 -a 0 -i 38 -k AGT
+ -t 15.633210810 -s 4 -d 3 -p cbr -e 532 -c 2 -a 0 -i 39 -k RTR 
- -t 15.633210810 -s 4 -d 3 -p cbr -e 532 -c 2 -a 0 -i 39 -k RTR
h -t 15.633210810 -s 4 -d 3 -p cbr -e 532 -c 2 -a 0 -i 39 -k RTR
r -t 15.639264719 -s 3 -d 3 -p cbr -e 512 -c 2 -a 0 -i 39 -k AGT
+ -t 15.649752110 -s 1 -d -1 -p cbr -e 512 -c 2 -a 0 -i 40 -k AGT 
- -t 15.649752110 -s 1 -d -1 -p cbr -e 512 -c 2 -a 0 -i 40 -k AGT
h -t 15.649752110 -s 1 -d -1 -p cbr -e 512 -c 2 -a 0 -i 40 -k AGT
+ -t 15.649752110 -s 1 -d 0 -p cbr -e 532 -c 2 -a 0 -i 40 -k RTR 
- -t 15.649752110 -s 1 -d 0 -p cbr -e 532 -c 2 -a 0 -i 40 -k RTR
h -t 15.649752110 -s 1 -d 0 -p cbr -e 532 -c 2 -a 0 -i 40 -k RTR
+ -t 15.652057315 -s 5 -d -1 -p cbr -e 512 -c 2 -a 0 -i 41 -k AGT 
- -t 15.652057315 -s 5 -d -1 -p cbr -e 512 -c 2 -a 0 -i 41 -k AGT
h -t 15.652057315 -s 5 -d -1 -p cbr -e 512 -c 2 -a 0 -i 41 -k AGT
+ -t 15.652057315 -s 5 -d 4 -p cbr -e 532 -c 2 -a 0 -i 41 -k RTR 
- -t 15.652057315 -s 5 -d 4 -p cbr -e 532 -c 2 -a 0 -i 41 -k RTR
h -t 15.652057315 -s 5 -d 4 -p cbr -e 532 -c 2 -a 0 -i 41 -k RTR
+ -t 15.655301793 -s 0 -d 2 -p cbr -e 532 -c 2 -a 0 -i 40 -k RTR 
- -t 15.655301793 -s 0 -d 2 -p cbr -e 532 -c 2 -a 0 -i 40 -k RTR
h -t 15.655301793 -s 0 -d 2 -p cbr -e 532 -c 2 -a 0 -i 40 -k RTR
+ -t 15.661095090 -s 2 -d 3 -p cbr -e 532 -c 2 -a 0 -i 40 -k RTR 
- -t 15.661095090 -s 2 -d 3 -p cbr -e 532 -c 2 -a 0 -i 40 -k RTR
h -t 15.661095090 -s 2 -d 3 -p cbr -e 532 -c 2 -a 0 -i 40 -k RTR
r -t 15.667329211 -s 3 -d 3 -p cbr -e 512 -c 2 -a 0 -i 40 -k AGT
+ -t 15.673708646 -s 4 -d 3 -p cbr -e 532 -c 2 -a 0 -i 41 -k RTR 
- -t 15.673708646 -s 4 -d 3 -p cbr -e 532 -c 2 -a 0 -i 41 -k RTR
h -t 15.673708646 -s 4 -d 3 -p cbr -e 532 -c 2 -a 0 -i 41 -k RTR
r -t 15.679782555 -s 3 -d 3 -p cbr -e 512 -c 2 -a 0 -i 41 -k AGT
+ -t 15.699400458 -s 5 -d -1 -p cbr -e 512 -c 2 -a 0 -i 42 -k AGT 
- -t 15.699400458 -s 5 -d -1 -p cbr -e 512 -c 2 -a 0 -i 42 -k AGT
h -t 15.699400458 -s 5 -d -1 -p cbr -e 512 -c 2 -a 0 -i 42 -k AGT
+ -t 15.699400458 -s 5 -d 4 -p cbr -e 532 -c 2 -a 0 -i 42 -k RTR 
- -t 15.699400458 -s 5 -d 4 -p cbr -e 532 -c 2 -a 0 -i 42 -k RTR
h -t 15.699400458 -s 5 -d 4 -p cbr -e 532 -c 2 -a 0 -i 42 -k RTR
+ -t 15.702767802 -s 1 -d -1 -p cbr -e 512 -c 2 -a 0 -i 43 -k AGT 
- -t 15.702767802 -s 1 -d -1 -p cbr -e 512 -c 2 -a 0 -i 43 -k AGT
h -t 15.702767802 -s 1 -d -1 -p cbr -e 512 -c 2 -a 0 -i 43 -k AGT
+ -t 15.702767802 -s 1 -d 0 -p cbr -e 532 -c 2 -a 0 -i 43 -k RTR 
- -t 15.702767802 -s 1 -d 0 -p cbr -e 532 -c 2 -a 0 -i 43 -k RTR
h -t 15.702767802 -s 1 -d 0 -p cbr -e 532 -c 2 -a 0 -i 43 -k RTR
+ -t 15.704850582 -s 4 -d 3 -p cbr -e 532 -c 2 -a 0 -i 42 -k RTR 
- -t 15.704850582 -s 4 -d 3 -p cbr -e 532 -c 2 -a 0 -i 42 -k RTR
h -t 15.704850582 -s 4 -d 3 -p cbr -e 532 -c 2 -a 0 -i 42 -k RTR
+ -t 15.711009652 -s 0 -d 2 -p cbr -e 532 -c 2 -a 0 -i 43 -k RTR 
- -t 15.711009652 -s 0 -d 2 -p cbr -e 532 -c 2 -a 0 -i 43 -k RTR
h -t 15.711009652 -s 0 -d 2 -p cbr -e 532 -c 2 -a 0 -i 43 -k RTR
r -t 15.716834387 -s 3 -d 3 -p cbr -e 512 -c 2 -a 0 -i 42 -k AGT
+ -t 15.723292741 -s 2 -d 3 -p cbr -e 532 -c 2 -a 0 -i 43 -k RTR 
- -t 15.723292741 -s 2 -d 3 -p cbr -e 532 -c 2 -a 0 -i 43 -k RTR
h -t 15.723292741 -s 2 -d 3 -p cbr -e 532 -c 2 -a 0 -i 43 -k RTR
r -t 15.729326862 -s 3 -d 3 -p cbr -e 512 -c 2 -a 0 -i 43 -k AGT
+ -t 15.732806745 -s 5 -d -1 -p cbr -e 512 -c 2 -a 0 -i 44 -k AGT 
- -t 15.732806745 -s 5 -d -1 -p cbr -e 512 -c 2 -a 0 -i 44 -k AGT
h -t 15.732806745 -s 5 -d -1 -p cbr -e 512 -c 2 -a 0 -i 44 -k AGT
+ -t 15.732806745 -s 5 -d 4 -p cbr -e 532 -c 2 -a 0 -i 44 -k RTR 
- -t 15.732806745 -s 5 -d 4 -p cbr -e 532 -c 2 -a 0 -i 44 -k RTR
h -t 15.732806745 -s 5 -d 4 -p cbr -e 532 -c 2 -a 0 -i 44 -k RTR
+ -t 15.738716870 -s 4 -d 3 -p cbr -e 532 -c 2 -a 0 -i 44 -k RTR 
- -t 15.738716870 -s 4 -d 3 -p cbr -e 532 -c 2 -a 0 -i 44 -k RTR
h -t 15.738716870 -s 4 -d 3 -p cbr -e 532 -c 2 -a 0 -i 44 -k RTR
r -t 15.744770779 -s 3 -d 3 -p cbr -e 512 -c 2 -a 0 -i 44 -k AGT
+ -t 15.771976147 -s 1 -d -1 -p cbr -e 512 -c 2 -a 0 -i 45 -k AGT 
- -t 15.771976147 -s 1 -d -1 -p cbr -e 512 -c 2 -a 0 -i 45 -k AGT
h -t 15.771976147 -s 1 -d -1 -p cbr -e 512 -c 2 -a 0 -i 45 -k AGT
+ -t 15.771976147 -s 1 -d 0 -p cbr -e 532 -c 2 -a 0 -i 45 -k RTR 
- -t 15.771976147 -s 1 -d 0 -p cbr -e 532 -c 2 -a 0 -i 45 -k RTR
h -t 15.771976147 -s 1 -d 0 -p cbr -e 532 -c 2 -a 0 -i 45 -k RTR
+ -t 15.777525830 -s 0 -d 2 -p cbr -e 532 -c 2 -a 0 -i 45 -k RTR 