Sconfig 0.00000 tap: on snoop: rts? on errs? on
Sconfig 0.00000 salvage: on !bd replies? on
Sconfig 0.00000 grat error: on grat reply: on
Sconfig 0.00000 $reply for props: on ring 0 search: on
Sconfig 0.00000 using MOBICACHE
s 15.000000000 _0_ AGT  --- 0 cbr 512 [0 0 0 0] ------- [0:0 18:0 32 0] [0] 0 0
r 15.000000000 _0_ RTR  --- 0 cbr 512 [0 0 0 0] ------- [0:0 18:0 32 0] [0] 0 0
s 15.000000000 _3_ AGT  --- 2 cbr 512 [0 0 0 0] ------- [3:0 18:1 32 0] [0] 0 0
r 15.000000000 _3_ RTR  --- 2 cbr 512 [0 0 0 0] ------- [3:0 18:1 32 0] [0] 0 0
s 15.000000000 _7_ AGT  --- 4 cbr 512 [0 0 0 0] ------- [7:0 11:0 32 0] [0] 0 0
r 15.000000000 _7_ RTR  --- 4 cbr 512 [0 0 0 0] ------- [7:0 11:0 32 0] [0] 0 0
s 15.000763926 _3_ RTR  --- 3 DSR 32 [0 0 0 0] ------- [3:255 18:255 32 0] 1 [1 1] [0 1 0 0->0] [0 0 0 0->0]
r 15.001616260 _0_ RTR  --- 3 DSR 32 [0 ffffffff 3 800] ------- [3:255 18:255 32 0] 1 [1 1] [0 1 0 0->0] [0 0 0 0->0]
r 15.001616260 _6_ RTR  --- 3 DSR 32 [0 ffffffff 3 800] ------- [3:255 18:255 32 0] 1 [1 1] [0 1 0 0->0] [0 0 0 0->0]
r 15.001616593 _9_ RTR  --- 3 DSR 32 [0 ffffffff 3 800] ------- [3:255 18:255 32 0] 1 [1 1] [0 1 0 0->0] [0 0 0 0->0]
r 15.001616593 _4_ RTR  --- 3 DSR 32 [0 ffffffff 3 800] ------- [3:255 18:255 32 0] 1 [1 1] [0 1 0 0->0] [0 0 0 0->0]
r 15.001616672 _1_ RTR  --- 3 DSR 32 [0 ffffffff 3 800] ------- [3:255 18:255 32 0] 1 [1 1] [0 1 0 0->0] [0 0 0 0->0]
r 15.001616672 _7_ RTR  --- 3 DSR 32 [0 ffffffff 3 800] ------- [3:255 18:255 32 0] 1 [1 1] [0 1 0 0->0] [0 0 0 0->0]
s 15.004917034 _7_ RTR  --- 5 DSR 32 [0 0 0 0] ------- [7:255 11:255 32 0] 1 [1 1] [0 1 0 0->0] [0 0 0 0->0]
r 15.005869368 _4_ RTR  --- 5 DSR 32 [0 ffffffff 7 800] ------- [7:255 11:255 32 0] 1 [1 1] [0 1 0 0->0] [0 0 0 0->0]
r 15.005869368 _10_ RTR  --- 5 DSR 32 [0 ffffffff 7 800] ------- [7:255 11:255 32 0] 1 [1 1] [0 1 0 0->0] [0 0 0 0->0]
r 15.005869701 _1_ RTR  --- 5 DSR 32 [0 ffffffff 7 800] ------- [7:255 11:255 32 0] 1 [1 1] [0 1 0 0->0] [0 0 0 0->0]
r 15.005869701 _6_ RTR  --- 5 DSR 32 [0 ffffffff 7 800] ------- [7:255 11:255 32 0] 1 [1 1] [0 1 0 0->0] [0 0 0 0->0]
r 15.005869701 _13_ RTR  --- 5 DSR 32 [0 ffffffff 7 800] ------- [7:255 11:255 32 0] 1 [1 1] [0 1 0 0->0] [0 0 0 0->0]
r 15.005869701 _8_ RTR  --- 5 DSR 32 [0 ffffffff 7 800] ------- [7:255 11:255 32 0] 1 [1 1] [0 1 0 0->0] [0 0 0 0->0]
r 15.005869780 _21_ RTR  --- 5 DSR 32 [0 ffffffff 7 800] ------- [7:255 11:255 32 0] 1 [1 1] [0 1 0 0->0] [0 0 0 0->0]
r 15.005869780 _9_ RTR  --- 5 DSR 32 [0 ffffffff 7 800] ------- [7:255 11:255 32 0] 1 [1 1] [0 1 0 0->0] [0 0 0 0->0]
r 15.005869780 _3_ RTR  --- 5 DSR 32 [0 ffffffff 7 800] ------- [7:255 11:255 32 0] 1 [1 1] [0 1 0 0->0] [0 0 0 0->0]
r 15.005869780 _20_ RTR  --- 5 DSR 32 [0 ffffffff 7 800] ------- [7:255 11:255 32 0] 1 [1 1] [0 1 0 0->0] [0 0 0 0->0]
r 15.005869780 _5_ RTR  --- 5 DSR 32 [0 ffffffff 7 800] ------- [7:255 11:255 32 0] 1 [1 1] [0 1 0 0->0] [0 0 0 0->0]
r 15.005869780 _11_ RTR  --- 5 DSR 32 [0 ffffffff 7 800] ------- [7:255 11:255 32 0] 1 [1 1] [0 1 0 0->0] [0 0 0 0->0]
s 15.007467171 _0_ RTR  --- 1 DSR 32 [0 0 0 0] ------- [0:255 18:255 32 0] 1 [1 1] [0 1 0 0->0] [0 0 0 0->0]
r 15.008539504 _3_ RTR  --- 1 DSR 32 [0 ffffffff 0 800] ------- [0:255 18:255 32 0] 1 [1 1] [0 1 0 0->0] [0 0 0 0->0]
r 15.008539837 _6_ RTR  --- 1 DSR 32 [0 ffffffff 0 800] ------- [0:255 18:255 32 0] 1 [1 1] [0 1 0 0->0] [0 0 0 0->0]
r 15.008539837 _1_ RTR  --- 1 DSR 32 [0 ffffffff 0 800] ------- [0:255 18:255 32 0] 1 [1 1] [0 1 0 0->0] [0 0 0 0->0]
r 15.008539916 _4_ RTR  --- 1 DSR 32 [0 ffffffff 0 800] ------- [0:255 18:255 32 0] 1 [1 1] [0 1 0 0->0] [0 0 0 0->0]
s 15.009739442 _11_ RTR  --- 6 DSR 44 [0 0 0 0] ------- [11:255 7:255 254 7] 2 [0 1] [1 1 2 7->11] [0 0 0 0->0]
r 15.011405678 _7_ RTR  --- 6 DSR 44 [13a 7 b 800] ------- [11:255 7:255 254 7] 2 [0 1] [1 1 2 7->11] [0 0 0 0->0]
SFESTs 15.011405678 _7_ 4 [7 -> 11] 1(1) to 11 [7 |11 ]
s 15.011405678 _7_ RTR  --- 4 cbr 548 [0 0 0 0] ------- [7:0 11:0 32 11] [0] 0 0
r 15.017847915 _11_ RTR  --- 4 cbr 548 [13a b 7 800] ------- [7:0 11:0 32 11] [0] 1 0
r 15.017847915 _11_ AGT  --- 4 cbr 512 [13a b 7 800] ------- [7:0 11:0 32 11] [0] 1 0
s 15.046502039 _0_ RTR  --- 8 DSR 32 [0 0 0 0] ------- [0:255 18:255 32 0] 1 [1 2] [0 2 0 0->16] [0 0 0 0->0]
r 15.047594372 _3_ RTR  --- 8 DSR 32 [0 ffffffff 0 800] ------- [0:255 18:255 32 0] 1 [1 2] [0 2 0 0->16] [0 0 0 0->0]
r 15.047594705 _6_ RTR  --- 8 DSR 32 [0 ffffffff 0 800] ------- [0:255 18:255 32 0] 1 [1 2] [0 2 0 0->16] [0 0 0 0->0]
r 15.047594705 _1_ RTR  --- 8 DSR 32 [0 ffffffff 0 800] ------- [0:255 18:255 32 0] 1 [1 2] [0 2 0 0->16] [0 0 0 0->0]
r 15.047594784 _4_ RTR  --- 8 DSR 32 [0 ffffffff 0 800] ------- [0:255 18:255 32 0] 1 [1 2] [0 2 0 0->16] [0 0 0 0->0]
f 15.047611930 _6_ RTR  --- 8 DSR 48 [0 ffffffff 0 800] ------- [0:255 18:255 32 0] 2 [1 2] [0 2 0 0->16] [0 0 0 0->0]
r 15.048712263 _3_ RTR  --- 8 DSR 48 [0 ffffffff 6 800] ------- [0:255 18:255 32 0] 2 [1 2] [0 2 0 0->16] [0 0 0 0->0]
r 15.048712263 _9_ RTR  --- 8 DSR 48 [0 ffffffff 6 800] ------- [0:255 18:255 32 0] 2 [1 2] [0 2 0 0->16] [0 0 0 0->0]
r 15.048712597 _0_ RTR  --- 8 DSR 48 [0 ffffffff 6 800] ------- [0:255 18:255 32 0] 2 [1 2] [0 2 0 0->16] [0 0 0 0->0]
r 15.048712597 _12_ RTR  --- 8 DSR 48 [0 ffffffff 6 800] ------- [0:255 18:255 32 0] 2 [1 2] [0 2 0 0->16] [0 0 0 0->0]
r 15.048712597 _7_ RTR  --- 8 DSR 48 [0 ffffffff 6 800] ------- [0:255 18:255 32 0] 2 [1 2] [0 2 0 0->16] [0 0 0 0->0]
r 15.048712675 _21_ RTR  --- 8 DSR 48 [0 ffffffff 6 800] ------- [0:255 18:255 32 0] 2 [1 2] [0 2 0 0->16] [0 0 0 0->0]
r 15.048712675 _4_ RTR  --- 8 DSR 48 [0 ffffffff 6 800] ------- [0:255 18:255 32 0] 2 [1 2] [0 2 0 0->16] [0 0 0 0->0]
r 15.048712675 _10_ RTR  --- 8 DSR 48 [0 ffffffff 6 800] ------- [0:255 18:255 32 0] 2 [1 2] [0 2 0 0->16] [0 0 0 0->0]
f 15.048902596 _9_ RTR  --- 8 DSR 68 [0 ffffffff 6 800] ------- [0:255 18:255 32 0] 3 [1 2] [0 2 0 0->16] [0 0 0 0->0]
f 15.049673643 _1_ RTR  --- 8 DSR 48 [0 ffffffff 0 800] ------- [0:255 18:255 32 0] 2 [1 2] [0 2 0 0->16] [0 0 0 0->0]
r 15.050102929 _6_ RTR  --- 8 DSR 68 [0 ffffffff 9 800] ------- [0:255 18:255 32 0] 3 [1 2] [0 2 0 0->16] [0 0 0 0->0]
r 15.050102929 _12_ RTR  --- 8 DSR 68 [0 ffffffff 9 800] ------- [0:255 18:255 32 0] 3 [1 2] [0 2 0 0->16] [0 0 0 0->0]
r 15.050103067 _21_ RTR  --- 8 DSR 68 [0 ffffffff 9 800] ------- [0:255 18:255 32 0] 3 [1 2] [0 2 0 0->16] [0 0 0 0->0]
r 15.050103262 _3_ RTR  --- 8 DSR 68 [0 ffffffff 9 800] ------- [0:255 18:255 32 0] 3 [1 2] [0 2 0 0->16] [0 0 0 0->0]
r 15.050103262 _15_ RTR  --- 8 DSR 68 [0 ffffffff 9 800] ------- [0:255 18:255 32 0] 3 [1 2] [0 2 0 0->16] [0 0 0 0->0]
r 15.050103262 _10_ RTR  --- 8 DSR 68 [0 ffffffff 9 800] ------- [0:255 18:255 32 0] 3 [1 2] [0 2 0 0->16] [0 0 0 0->0]
r 15.050103341 _19_ RTR  --- 8 DSR 68 [0 ffffffff 9 800] ------- [0:255 18:255 32 0] 3 [1 2] [0 2 0 0->16] [0 0 0 0->0]
r 15.050103341 _7_ RTR  --- 8 DSR 68 [0 ffffffff 9 800] ------- [0:255 18:255 32 0] 3 [1 2] [0 2 0 0->16] [0 0 0 0->0]
r 15.050103341 _13_ RTR  --- 8 DSR 68 [0 ffffffff 9 800] ------- [0:255 18:255 32 0] 3 [1 2] [0 2 0 0->16] [0 0 0 0->0]
f 15.050280245 _21_ RTR  --- 8 DSR 68 [0 ffffffff 6 800] ------- [0:255 18:255 32 0] 3 [1 2] [0 2 0 0->16] [0 0 0 0->0]
f 15.050777673 _7_ RTR  --- 8 DSR 68 [0 ffffffff 6 800] ------- [0:255 18:255 32 0] 3 [1 2] [0 2 0 0->16] [0 0 0 0->0]
r 15.051560578 _19_ RTR  --- 8 DSR 68 [0 ffffffff 15 800] ------- [0:255 18:255 32 0] 3 [1 2] [0 2 0 0->16] [0 0 0 0->0]
r 15.051560578 _12_ RTR  --- 8 DSR 68 [0 ffffffff 15 800] ------- [0:255 18:255 32 0] 3 [1 2] [0 2 0 0->16] [0 0 0 0->0]
r 15.051560578 _13_ RTR  --- 8 DSR 68 [0 ffffffff 15 800] ------- [0:255 18:255 32 0] 3 [1 2] [0 2 0 0->16] [0 0 0 0->0]
r 15.051560716 _15_ RTR  --- 8 DSR 68 [0 ffffffff 15 800] ------- [0:255 18:255 32 0] 3 [1 2] [0 2 0 0->16] [0 0 0 0->0]
r 15.051560716 _9_ RTR  --- 8 DSR 68 [0 ffffffff 15 800] ------- [0:255 18:255 32 0] 3 [1 2] [0 2 0 0->16] [0 0 0 0->0]
r 15.051560716 _10_ RTR  --- 8 DSR 68 [0 ffffffff 15 800] ------- [0:255 18:255 32 0] 3 [1 2] [0 2 0 0->16] [0 0 0 0->0]
r 15.051560716 _16_ RTR  --- 8 DSR 68 [0 ffffffff 15 800] ------- [0:255 18:255 32 0] 3 [1 2] [0 2 0 0->16] [0 0 0 0->0]
r 15.051560911 _20_ RTR  --- 8 DSR 68 [0 ffffffff 15 800] ------- [0:255 18:255 32 0] 3 [1 2] [0 2 0 0->16] [0 0 0 0->0]
f 15.051560951 _15_ RTR  --- 8 DSR 92 [0 ffffffff 9 800] ------- [0:255 18:255 32 0] 4 [1 2] [0 2 0 0->16] [0 0 0 0->0]
r 15.051560990 _6_ RTR  --- 8 DSR 68 [0 ffffffff 15 800] ------- [0:255 18:255 32 0] 3 [1 2] [0 2 0 0->16] [0 0 0 0->0]
r 15.051560990 _7_ RTR  --- 8 DSR 68 [0 ffffffff 15 800] ------- [0:255 18:255 32 0] 3 [1 2] [0 2 0 0->16] [0 0 0 0->0]
r 15.051560990 _18_ RTR  --- 8 DSR 68 [0 ffffffff 15 800] ------- [0:255 18:255 32 0] 3 [1 2] [0 2 0 0->16] [0 0 0 0->0]
f 15.052080222 _19_ RTR  --- 8 DSR 92 [0 ffffffff 9 800] ------- [0:255 18:255 32 0] 4 [1 2] [0 2 0 0->16] [0 0 0 0->0]
r 15.052991323 _4_ RTR  --- 8 DSR 68 [0 ffffffff 7 800] ------- [0:255 18:255 32 0] 3 [1 2] [0 2 0 0->16] [0 0 0 0->0]
r 15.052991323 _10_ RTR  --- 8 DSR 68 [0 ffffffff 7 800] ------- [0:255 18:255 32 0] 3 [1 2] [0 2 0 0->16] [0 0 0 0->0]
r 15.052991657 _1_ RTR  --- 8 DSR 68 [0 ffffffff 7 800] ------- [0:255 18:255 32 0] 3 [1 2] [0 2 0 0->16] [0 0 0 0->0]
r 15.052991657 _6_ RTR  --- 8 DSR 68 [0 ffffffff 7 800] ------- [0:255 18:255 32 0] 3 [1 2] [0 2 0 0->16] [0 0 0 0->0]
r 15.052991657 _13_ RTR  --- 8 DSR 68 [0 ffffffff 7 800] ------- [0:255 18:255 32 0] 3 [1 2] [0 2 0 0->16] [0 0 0 0->0]
r 15.052991657 _8_ RTR  --- 8 DSR 68 [0 ffffffff 7 800] ------- [0:255 18:255 32 0] 3 [1 2] [0 2 0 0->16] [0 0 0 0->0]
r 15.052991735 _21_ RTR  --- 8 DSR 68 [0 ffffffff 7 800] ------- [0:255 18:255 32 0] 3 [1 2] [0 2 0 0->16] [0 0 0 0->0]
r 15.052991735 _9_ RTR  --- 8 DSR 68 [0 ffffffff 7 800] ------- [0:255 18:255 32 0] 3 [1 2] [0 2 0 0->16] [0 0 0 0->0]
r 15.052991735 _3_ RTR  --- 8 DSR 68 [0 ffffffff 7 800] ------- [0:255 18:255 32 0] 3 [1 2] [0 2 0 0->16] [0 0 0 0->0]
r 15.052991735 _20_ RTR  --- 8 DSR 68 [0 ffffffff 7 800] ------- [0:255 18:255 32 0] 3 [1 2] [0 2 0 0->16] [0 0 0 0->0]
r 15.052991735 _5_ RTR  --- 8 DSR 68 [0 ffffffff 7 800] ------- [0:255 18:255 32 0] 3 [1 2] [0 2 0 0->16] [0 0 0 0->0]
r 15.052991735 _11_ RTR  --- 8 DSR 68 [0 ffffffff 7 800] ------- [0:255 18:255 32 0] 3 [1 2] [0 2 0 0->16] [0 0 0 0->0]
f 15.053904814 _12_ RTR  --- 8 DSR 68 [0 ffffffff 6 800] ------- [0:255 18:255 32 0] 3 [1 2] [0 2 0 0->16] [0 0 0 0->0]
r 15.053921990 _4_ RTR  --- 8 DSR 48 [0 ffffffff 1 800] ------- [0:255 18:255 32 0] 2 [1 2] [0 2 0 0->16] [0 0 0 0->0]
r 15.053922323 _0_ RTR  --- 8 DSR 48 [0 ffffffff 1 800] ------- [0:255 18:255 32 0] 2 [1 2] [0 2 0 0->16] [0 0 0 0->0]
r 15.053922323 _7_ RTR  --- 8 DSR 48 [0 ffffffff 1 800] ------- [0:255 18:255 32 0] 2 [1 2] [0 2 0 0->16] [0 0 0 0->0]
r 15.053922323 _2_ RTR  --- 8 DSR 48 [0 ffffffff 1 800] ------- [0:255 18:255 32 0] 2 [1 2] [0 2 0 0->16] [0 0 0 0->0]
r 15.053922402 _3_ RTR  --- 8 DSR 48 [0 ffffffff 1 800] ------- [0:255 18:255 32 0] 2 [1 2] [0 2 0 0->16] [0 0 0 0->0]
r 15.053922402 _5_ RTR  --- 8 DSR 48 [0 ffffffff 1 800] ------- [0:255 18:255 32 0] 2 [1 2] [0 2 0 0->16] [0 0 0 0->0]
f 15.053930448 _10_ RTR  --- 8 DSR 68 [0 ffffffff 6 800] ------- [0:255 18:255 32 0] 3 [1 2] [0 2 0 0->16] [0 0 0 0->0]
f 15.054929280 _13_ RTR  --- 8 DSR 92 [0 ffffffff 9 800] ------- [0:255 18:255 32 0] 4 [1 2] [0 2 0 0->16] [0 0 0 0->0]
s 15.055457286 _18_ RTR  --- 9 DSR 60 [0 0 0 0] ------- [18:255 0:255 254 21] 4 [0 2] [1 2 4 0->18] [0 0 0 0->0]
r 15.055529785 _12_ RTR  --- 8 DSR 92 [0 ffffffff f 800] ------- [0:255 18:255 32 0] 4 [1 2] [0 2 0 0->16] [0 0 0 0->0]
r 15.055529785 _19_ RTR  --- 8 DSR 92 [0 ffffffff f 800] ------- [0:255 18:255 32 0] 4 [1 2] [0 2 0 0->16] [0 0 0 0->0]
r 15.055529923 _21_ RTR  --- 8 DSR 92 [0 ffffffff f 800] ------- [0:255 18:255 32 0] 4 [1 2] [0 2 0 0->16] [0 0 0 0->0]
r 15.055530119 _9_ RTR  --- 8 DSR 92 [0 ffffffff f 800] ------- [0:255 18:255 32 0] 4 [1 2] [0 2 0 0->16] [0 0 0 0->0]
r 15.055530119 _16_ RTR  --- 8 DSR 92 [0 ffffffff f 800] ------- [0:255 18:255 32 0] 4 [1 2] [0 2 0 0->16] [0 0 0 0->0]
r 15.055530197 _13_ RTR  --- 8 DSR 92 [0 ffffffff f 800] ------- [0:255 18:255 32 0] 4 [1 2] [0 2 0 0->16] [0 0 0 0->0]
f 15.055568680 _3_ RTR  --- 8 DSR 48 [0 ffffffff 0 800] ------- [0:255 18:255 32 0] 2 [1 2] [0 2 0 0->16] [0 0 0 0->0]
f 15.055755375 _4_ RTR  --- 8 DSR 48 [0 ffffffff 0 800] ------- [0:255 18:255 32 0] 2 [1 2] [0 2 0 0->16] [0 0 0 0->0]
f 15.056256039 _8_ RTR  --- 8 DSR 92 [0 ffffffff 7 800] ------- [0:255 18:255 32 0] 4 [1 2] [0 2 0 0->16] [0 0 0 0->0]
r 15.056772531 _10_ RTR  --- 8 DSR 92 [0 ffffffff d 800] ------- [0:255 18:255 32 0] 4 [1 2] [0 2 0 0->16] [0 0 0 0->0]
r 15.056772531 _21_ RTR  --- 8 DSR 92 [0 ffffffff d 800] ------- [0:255 18:255 32 0] 4 [1 2] [0 2 0 0->16] [0 0 0 0->0]
r 15.056772531 _16_ RTR  --- 8 DSR 92 [0 ffffffff d 800] ------- [0:255 18:255 32 0] 4 [1 2] [0 2 0 0->16] [0 0 0 0->0]
r 15.056772531 _20_ RTR  --- 8 DSR 92 [0 ffffffff d 800] ------- [0:255 18:255 32 0] 4 [1 2] [0 2 0 0->16] [0 0 0 0->0]
r 15.056772669 _19_ RTR  --- 8 DSR 92 [0 ffffffff d 800] ------- [0:255 18:255 32 0] 4 [1 2] [0 2 0 0->16] [0 0 0 0->0]
r 15.056772669 _18_ RTR  --- 8 DSR 92 [0 ffffffff d 800] ------- [0:255 18:255 32 0] 4 [1 2] [0 2 0 0->16] [0 0 0 0->0]
r 15.056772864 _7_ RTR  --- 8 DSR 92 [0 ffffffff d 800] ------- [0:255 18:255 32 0] 4 [1 2] [0 2 0 0->16] [0 0 0 0->0]
r 15.056772864 _12_ RTR  --- 8 DSR 92 [0 ffffffff d 800] ------- [0:255 18:255 32 0] 4 [1 2] [0 2 0 0->16] [0 0 0 0->0]
r 15.056772864 _14_ RTR  --- 8 DSR 92 [0 ffffffff d 800] ------- [0:255 18:255 32 0] 4 [1 2] [0 2 0 0->16] [0 0 0 0->0]
r 15.056772943 _15_ RTR  --- 8 DSR 92 [0 ffffffff d 800] ------- [0:255 18:255 32 0] 4 [1 2] [0 2 0 0->16] [0 0 0 0->0]
r 15.056772943 _9_ RTR  --- 8 DSR 92 [0 ffffffff d 800] ------- [0:255 18:255 32 0] 4 [1 2] [0 2 0 0->16] [0 0 0 0->0]
r 15.056772943 _11_ RTR  --- 8 DSR 92 [0 ffffffff d 800] ------- [0:255 18:255 32 0] 4 [1 2] [0 2 0 0->16] [0 0 0 0->0]
r 15.056772943 _17_ RTR  --- 8 DSR 92 [0 ffffffff d 800] ------- [0:255 18:255 32 0] 4 [1 2] [0 2 0 0->16] [0 0 0 0->0]
r 15.057823197 _9_ RTR  --- 8 DSR 68 [0 ffffffff c 800] ------- [0:255 18:255 32 0] 3 [1 2] [0 2 0 0->16] [0 0 0 0->0]
r 15.057823197 _15_ RTR  --- 8 DSR 68 [0 ffffffff c 800] ------- [0:255 18:255 32 0] 3 [1 2] [0 2 0 0->16] [0 0 0 0->0]
r 15.057823197 _21_ RTR  --- 8 DSR 68 [0 ffffffff c 800] ------- [0:255 18:255 32 0] 3 [1 2] [0 2 0 0->16] [0 0 0 0->0]
r 15.057823335 _19_ RTR  --- 8 DSR 68 [0 ffffffff c 800] ------- [0:255 18:255 32 0] 3 [1 2] [0 2 0 0->16] [0 0 0 0->0]
r 15.057823531 _6_ RTR  --- 8 DSR 68 [0 ffffffff c 800] ------- [0:255 18:255 32 0] 3 [1 2] [0 2 0 0->16] [0 0 0 0->0]
r 15.057823531 _13_ RTR  --- 8 DSR 68 [0 ffffffff c 800] ------- [0:255 18:255 32 0] 3 [1 2] [0 2 0 0->16] [0 0 0 0->0]
r 15.057823609 _10_ RTR  --- 8 DSR 68 [0 ffffffff c 800] ------- [0:255 18:255 32 0] 3 [1 2] [0 2 0 0->16] [0 0 0 0->0]
r 15.057823609 _16_ RTR  --- 8 DSR 68 [0 ffffffff c 800] ------- [0:255 18:255 32 0] 3 [1 2] [0 2 0 0->16] [0 0 0 0->0]
f 15.058979835 _20_ RTR  --- 8 DSR 92 [0 ffffffff 15 800] ------- [0:255 18:255 32 0] 4 [1 2] [0 2 0 0->16] [0 0 0 0->0]
r 15.059045669 _15_ RTR  --- 8 DSR 92 [0 ffffffff 13 800] ------- [0:255 18:255 32 0] 4 [1 2] [0 2 0 0->16] [0 0 0 0->0]
r 15.059045669 _21_ RTR  --- 8 DSR 92 [0 ffffffff 13 800] ------- [0:255 18:255 32 0] 4 [1 2] [0 2 0 0->16] [0 0 0 0->0]
r 15.059045669 _16_ RTR  --- 8 DSR 92 [0 ffffffff 13 800] ------- [0:255 18:255 32 0] 4 [1 2] [0 2 0 0->16] [0 0 0 0->0]
r 15.059045807 _12_ RTR  --- 8 DSR 92 [0 ffffffff 13 800] ------- [0:255 18:255 32 0] 4 [1 2] [0 2 0 0->16] [0 0 0 0->0]
r 15.059045807 _13_ RTR  --- 8 DSR 92 [0 ffffffff 13 800] ------- [0:255 18:255 32 0] 4 [1 2] [0 2 0 0->16] [0 0 0 0->0]
r 15.059046002 _18_ RTR  --- 8 DSR 92 [0 ffffffff 13 800] ------- [0:255 18:255 32 0] 4 [1 2] [0 2 0 0->16] [0 0 0 0->0]
r 15.059046081 _9_ RTR  --- 8 DSR 92 [0 ffffffff 13 800] ------- [0:255 18:255 32 0] 4 [1 2] [0 2 0 0->16] [0 0 0 0->0]
r 15.059046081 _10_ RTR  --- 8 DSR 92 [0 ffffffff 13 800] ------- [0:255 18:255 32 0] 4 [1 2] [0 2 0 0->16] [0 0 0 0->0]
r 15.059046081 _20_ RTR  --- 8 DSR 92 [0 ffffffff 13 800] ------- [0:255 18:255 32 0] 4 [1 2] [0 2 0 0->16] [0 0 0 0->0]
s 15.059275781 _18_ RTR  --- 11 DSR 68 [0 0 0 0] ------- [18:255 0:255 254 19] 5 [0 2] [1 2 5 0->18] [0 0 0 0->0]
f 15.059364180 _11_ RTR  --- 8 DSR 92 [0 ffffffff 7 800] ------- [0:255 18:255 32 0] 4 [1 2] [0 2 0 0->16] [0 0 0 0->0]
f 15.059686937 _16_ RTR  --- 8 DSR 92 [0 ffffffff 15 800] ------- [0:255 18:255 32 0] 4 [1 2] [0 2 0 0->16] [0 0 0 0->0]
f 15.059720794 _5_ RTR  --- 8 DSR 92 [0 ffffffff 7 800] ------- [0:255 18:255 32 0] 4 [1 2] [0 2 0 0->16] [0 0 0 0->0]
f 15.060164862 _17_ RTR  --- 8 DSR 120 [0 ffffffff d 800] ------- [0:255 18:255 32 0] 5 [1 2] [0 2 0 0->16] [0 0 0 0->0]
r 15.060288414 _18_ RTR  --- 8 DSR 92 [0 ffffffff 14 800] ------- [0:255 18:255 32 0] 4 [1 2] [0 2 0 0->16] [0 0 0 0->0]
f 15.061428673 _2_ RTR  --- 8 DSR 68 [0 ffffffff 1 800] ------- [0:255 18:255 32 0] 3 [1 2] [0 2 0 0->16] [0 0 0 0->0]
r 15.061682885 _7_ RTR  --- 8 DSR 68 [0 ffffffff a 800] ------- [0:255 18:255 32 0] 3 [1 2] [0 2 0 0->16] [0 0 0 0->0]
r 15.061682885 _13_ RTR  --- 8 DSR 68 [0 ffffffff a 800] ------- [0:255 18:255 32 0] 3 [1 2] [0 2 0 0->16] [0 0 0 0->0]
r 15.061683023 _21_ RTR  --- 8 DSR 68 [0 ffffffff a 800] ------- [0:255 18:255 32 0] 3 [1 2] [0 2 0 0->16] [0 0 0 0->0]
r 15.061683023 _20_ RTR  --- 8 DSR 68 [0 ffffffff a 800] ------- [0:255 18:255 32 0] 3 [1 2] [0 2 0 0->16] [0 0 0 0->0]
r 15.061683219 _4_ RTR  --- 8 DSR 68 [0 ffffffff a 800] ------- [0:255 18:255 32 0] 3 [1 2] [0 2 0 0->16] [0 0 0 0->0]
r 15.061683219 _9_ RTR  --- 8 DSR 68 [0 ffffffff a 800] ------- [0:255 18:255 32 0] 3 [1 2] [0 2 0 0->16] [0 0 0 0->0]
r 15.061683219 _16_ RTR  --- 8 DSR 68 [0 ffffffff a 800] ------- [0:255 18:255 32 0] 3 [1 2] [0 2 0 0->16] [0 0 0 0->0]
r 15.061683219 _11_ RTR  --- 8 DSR 68 [0 ffffffff a 800] ------- [0:255 18:255 32 0] 3 [1 2] [0 2 0 0->16] [0 0 0 0->0]
r 15.061683297 _19_ RTR  --- 8 DSR 68 [0 ffffffff a 800] ------- [0:255 18:255 32 0] 3 [1 2] [0 2 0 0->16] [0 0 0 0->0]
r 15.061683297 _12_ RTR  --- 8 DSR 68 [0 ffffffff a 800] ------- [0:255 18:255 32 0] 3 [1 2] [0 2 0 0->16] [0 0 0 0->0]
r 15.061683297 _6_ RTR  --- 8 DSR 68 [0 ffffffff a 800] ------- [0:255 18:255 32 0] 3 [1 2] [0 2 0 0->16] [0 0 0 0->0]
r 15.061683297 _18_ RTR  --- 8 DSR 68 [0 ffffffff a 800] ------- [0:255 18:255 32 0] 3 [1 2] [0 2 0 0->16] [0 0 0 0->0]
r 15.061683297 _8_ RTR  --- 8 DSR 68 [0 ffffffff a 800] ------- [0:255 18:255 32 0] 3 [1 2] [0 2 0 0->16] [0 0 0 0->0]
r 15.061683297 _14_ RTR  --- 8 DSR 68 [0 ffffffff a 800] ------- [0:255 18:255 32 0] 3 [1 2] [0 2 0 0->16] [0 0 0 0->0]
s 15.063418923 _18_ RTR  --- 12 DSR 68 [0 0 0 0] ------- [18:255 0:255 254 20] 5 [0 2] [1 2 5 0->18] [0 0 0 0->0]
r 15.063547533 _21_ RTR  --- 9 DSR 60 [13a 15 12 800] ------- [18:255 0:255 254 21] 4 [0 2] [1 2 4 0->18] [0 0 0 0->0]
f 15.063547533 _21_ RTR  --- 9 DSR 60 [13a 15 12 800] ------- [18:255 0:255 253 6] 4 [0 2] [1 2 4 0->18] [0 0 0 0->0]
s 15.065063961 _18_ RTR  --- 10 DSR 68 [0 0 0 0] ------- [18:255 0:255 254 13] 5 [0 2] [1 2 5 0->18] [0 0 0 0->0]
r 15.065609279 _20_ RTR  --- 12 DSR 68 [13a 14 12 800] ------- [18:255 0:255 254 20] 5 [0 2] [1 2 5 0->18] [0 0 0 0->0]
f 15.065609279 _20_ RTR  --- 12 DSR 68 [13a 14 12 800] ------- [18:255 0:255 253 21] 5 [0 2] [1 2 5 0->18] [0 0 0 0->0]
f 15.066238255 _14_ RTR  --- 8 DSR 120 [0 ffffffff d 800] ------- [0:255 18:255 32 0] 5 [1 2] [0 2 0 0->16] [0 0 0 0->0]
r 15.067206084 _13_ RTR  --- 8 DSR 92 [0 ffffffff 10 800] ------- [0:255 18:255 32 0] 4 [1 2] [0 2 0 0->16] [0 0 0 0->0]
r 15.067206084 _19_ RTR  --- 8 DSR 92 [0 ffffffff 10 800] ------- [0:255 18:255 32 0] 4 [1 2] [0 2 0 0->16] [0 0 0 0->0]
r 15.067206084 _18_ RTR  --- 8 DSR 92 [0 ffffffff 10 800] ------- [0:255 18:255 32 0] 4 [1 2] [0 2 0 0->16] [0 0 0 0->0]
r 15.067206222 _21_ RTR  --- 8 DSR 92 [0 ffffffff 10 800] ------- [0:255 18:255 32 0] 4 [1 2] [0 2 0 0->16] [0 0 0 0->0]
r 15.067206222 _20_ RTR  --- 8 DSR 92 [0 ffffffff 10 800] ------- [0:255 18:255 32 0] 4 [1 2] [0 2 0 0->16] [0 0 0 0->0]
r 15.067206417 _10_ RTR  --- 8 DSR 92 [0 ffffffff 10 800] ------- [0:255 18:255 32 0] 4 [1 2] [0 2 0 0->16] [0 0 0 0->0]
r 15.067206417 _15_ RTR  --- 8 DSR 92 [0 ffffffff 10 800] ------- [0:255 18:255 32 0] 4 [1 2] [0 2 0 0->16] [0 0 0 0->0]
r 15.067206417 _17_ RTR  --- 8 DSR 92 [0 ffffffff 10 800] ------- [0:255 18:255 32 0] 4 [1 2] [0 2 0 0->16] [0 0 0 0->0]
r 15.067206496 _12_ RTR  --- 8 DSR 92 [0 ffffffff 10 800] ------- [0:255 18:255 32 0] 4 [1 2] [0 2 0 0->16] [0 0 0 0->0]
r 15.067206496 _14_ RTR  --- 8 DSR 92 [0 ffffffff 10 800] ------- [0:255 18:255 32 0] 4 [1 2] [0 2 0 0->16] [0 0 0 0->0]
r 15.068632829 _11_ RTR  --- 8 DSR 120 [0 ffffffff e 800] ------- [0:255 18:255 32 0] 5 [1 2] [0 2 0 0->16] [0 0 0 0->0]
r 15.068632829 _20_ RTR  --- 8 DSR 120 [0 ffffffff e 800] ------- [0:255 18:255 32 0] 5 [1 2] [0 2 0 0->16] [0 0 0 0->0]
r 15.068632829 _17_ RTR  --- 8 DSR 120 [0 ffffffff e 800] ------- [0:255 18:255 32 0] 5 [1 2] [0 2 0 0->16] [0 0 0 0->0]
r 15.068632967 _18_ RTR  --- 8 DSR 120 [0 ffffffff e 800] ------- [0:255 18:255 32 0] 5 [1 2] [0 2 0 0->16] [0 0 0 0->0]
r 15.068633162 _8_ RTR  --- 8 DSR 120 [0 ffffffff e 800] ------- [0:255 18:255 32 0] 5 [1 2] [0 2 0 0->16] [0 0 0 0->0]
r 15.068633162 _13_ RTR  --- 8 DSR 120 [0 ffffffff e 800] ------- [0:255 18:255 32 0] 5 [1 2] [0 2 0 0->16] [0 0 0 0->0]
r 15.068633241 _16_ RTR  --- 8 DSR 120 [0 ffffffff e 800] ------- [0:255 18:255 32 0] 5 [1 2] [0 2 0 0->16] [0 0 0 0->0]
r 15.068633241 _10_ RTR  --- 8 DSR 120 [0 ffffffff e 800] ------- [0:255 18:255 32 0] 5 [1 2] [0 2 0 0->16] [0 0 0 0->0]
s 15.069070087 _18_ RTR  --- 13 DSR 60 [0 0 0 0] ------- [18:255 0:255 254 10] 4 [0 2] [1 2 4 0->18] [0 0 0 0->0]
r 15.070340381 _13_ RTR  --- 10 DSR 68 [13a d 12 800] ------- [18:255 0:255 254 13] 5 [0 2] [1 2 5 0->18] [0 0 0 0->0]
f 15.070340381 _13_ RTR  --- 10 DSR 68 [13a d 12 800] ------- [18:255 0:255 253 9] 5 [0 2] [1 2 5 0->18] [0 0 0 0->0]
s 15.070707408 _3_ RTR  --- 14 DSR 32 [0 0 0 0] ------- [3:255 18:255 32 0] 1 [1 2] [0 2 0 0->16] [0 0 0 0->0]
r 15.072362617 _9_ RTR  --- 10 DSR 68 [13a 9 d 800] ------- [18:255 0:255 253 9] 5 [0 2] [1 2 5 0->18] [0 0 0 0->0]
f 15.072362617 _9_ RTR  --- 10 DSR 68 [13a 9 d 800] ------- [18:255 0:255 252 6] 5 [0 2] [1 2 5 0->18] [0 0 0 0->0]
r 15.074503617 _6_ RTR  --- 10 DSR 68 [13a 6 9 800] ------- [18:255 0:255 252 6] 5 [0 2] [1 2 5 0->18] [0 0 0 0->0]
f 15.074503617 _6_ RTR  --- 10 DSR 68 [13a 6 9 800] ------- [18:255 0:255 251 0] 5 [0 2] [1 2 5 0->18] [0 0 0 0->0]
s 15.074531059 _18_ RTR  --- 15 DSR 68 [0 0 0 0] ------- [18:255 0:255 254 16] 5 [0 2] [1 2 5 0->18] [0 0 0 0->0]
r 15.076565617 _0_ RTR  --- 10 DSR 68 [13a 0 6 800] ------- [18:255 0:255 251 0] 5 [0 2] [1 2 5 0->18] [0 0 0 0->0]
SFESTs 15.076565617 _0_ 0 [0 -> 18] 1(1) to 6 [0 |6 9 13 18 ]
s 15.076565617 _0_ RTR  --- 0 cbr 560 [0 0 0 0] ------- [0:0 18:0 32 6] [0] 0 0
r 15.077891108 _0_ RTR  --- 8 DSR 48 [0 ffffffff 4 800] ------- [0:255 18:255 32 0] 2 [1 2] [0 2 0 0->16] [0 0 0 0->0]
r 15.077891108 _8_ RTR  --- 8 DSR 48 [0 ffffffff 4 800] ------- [0:255 18:255 32 0] 2 [1 2] [0 2 0 0->16] [0 0 0 0->0]
s 15.078472171 _18_ RTR  --- 16 DSR 76 [0 0 0 0] ------- [18:255 0:255 254 14] 6 [0 2] [1 2 6 0->18] [0 0 0 0->0]
r 15.079293441 _5_ RTR  --- 8 DSR 92 [0 ffffffff 8 800] ------- [0:255 18:255 32 0] 4 [1 2] [0 2 0 0->16] [0 0 0 0->0]
r 15.079293441 _11_ RTR  --- 8 DSR 92 [0 ffffffff 8 800] ------- [0:255 18:255 32 0] 4 [1 2] [0 2 0 0->16] [0 0 0 0->0]
r 15.079293775 _2_ RTR  --- 8 DSR 92 [0 ffffffff 8 800] ------- [0:255 18:255 32 0] 4 [1 2] [0 2 0 0->16] [0 0 0 0->0]
r 15.079293775 _7_ RTR  --- 8 DSR 92 [0 ffffffff 8 800] ------- [0:255 18:255 32 0] 4 [1 2] [0 2 0 0->16] [0 0 0 0->0]
r 15.079293775 _14_ RTR  --- 8 DSR 92 [0 ffffffff 8 800] ------- [0:255 18:255 32 0] 4 [1 2] [0 2 0 0->16] [0 0 0 0->0]
r 15.079293853 _20_ RTR  --- 8 DSR 92 [0 ffffffff 8 800] ------- [0:255 18:255 32 0] 4 [1 2] [0 2 0 0->16] [0 0 0 0->0]
r 15.079293853 _10_ RTR  --- 8 DSR 92 [0 ffffffff 8 800] ------- [0:255 18:255 32 0] 4 [1 2] [0 2 0 0->16] [0 0 0 0->0]
r 15.079293853 _4_ RTR  --- 8 DSR 92 [0 ffffffff 8 800] ------- [0:255 18:255 32 0] 4 [1 2] [0 2 0 0->16] [0 0 0 0->0]
r 15.081061853 _21_ RTR  --- 12 DSR 68 [13a 15 14 800] ------- [18:255 0:255 253 21] 5 [0 2] [1 2 5 0->18] [0 0 0 0->0]
f 15.081061853 _21_ RTR  --- 12 DSR 68 [13a 15 14 800] ------- [18:255 0:255 252 6] 5 [0 2] [1 2 5 0->18] [0 0 0 0->0]
r 15.083100835 _10_ RTR  --- 13 DSR 60 [13a a 12 800] ------- [18:255 0:255 254 10] 4 [0 2] [1 2 4 0->18] [0 0 0 0->0]
f 15.083100835 _10_ RTR  --- 13 DSR 60 [13a a 12 800] ------- [18:255 0:255 253 6] 4 [0 2] [1 2 4 0->18] [0 0 0 0->0]
r 15.084637835 _8_ RTR  --- 8 DSR 92 [0 ffffffff b 800] ------- [0:255 18:255 32 0] 4 [1 2] [0 2 0 0->16] [0 0 0 0->0]
r 15.084637835 _14_ RTR  --- 8 DSR 92 [0 ffffffff b 800] ------- [0:255 18:255 32 0] 4 [1 2] [0 2 0 0->16] [0 0 0 0->0]
r 15.084637973 _20_ RTR  --- 8 DSR 92 [0 ffffffff b 800] ------- [0:255 18:255 32 0] 4 [1 2] [0 2 0 0->16] [0 0 0 0->0]
r 15.084638168 _5_ RTR  --- 8 DSR 92 [0 ffffffff b 800] ------- [0:255 18:255 32 0] 4 [1 2] [0 2 0 0->16] [0 0 0 0->0]
r 15.084638168 _10_ RTR  --- 8 DSR 92 [0 ffffffff b 800] ------- [0:255 18:255 32 0] 4 [1 2] [0 2 0 0->16] [0 0 0 0->0]
r 15.084638168 _17_ RTR  --- 8 DSR 92 [0 ffffffff b 800] ------- [0:255 18:255 32 0] 4 [1 2] [0 2 0 0->16] [0 0 0 0->0]
r 15.084638247 _18_ RTR  --- 8 DSR 92 [0 ffffffff b 800] ------- [0:255 18:255 32 0] 4 [1 2] [0 2 0 0->16] [0 0 0 0->0]
r 15.084638247 _13_ RTR  --- 8 DSR 92 [0 ffffffff b 800] ------- [0:255 18:255 32 0] 4 [1 2] [0 2 0 0->16] [0 0 0 0->0]
r 15.084638247 _7_ RTR  --- 8 DSR 92 [0 ffffffff b 800] ------- [0:255 18:255 32 0] 4 [1 2] [0 2 0 0->16] [0 0 0 0->0]
r 15.086529661 _14_ RTR  --- 16 DSR 76 [13a e 12 800] ------- [18:255 0:255 254 14] 6 [0 2] [1 2 6 0->18] [0 0 0 0->0]
f 15.086529661 _14_ RTR  --- 16 DSR 76 [13a e 12 800] ------- [18:255 0:255 253 13] 6 [0 2] [1 2 6 0->18] [0 0 0 0->0]
r 15.088259661 _0_ RTR  --- 8 DSR 48 [0 ffffffff 3 800] ------- [0:255 18:255 32 0] 2 [1 2] [0 2 0 0->16] [0 0 0 0->0]
r 15.088310328 _14_ RTR  --- 8 DSR 120 [0 ffffffff 11 800] ------- [0:255 18:255 32 0] 5 [1 2] [0 2 0 0->16] [0 0 0 0->0]
r 15.088310328 _18_ RTR  --- 8 DSR 120 [0 ffffffff 11 800] ------- [0:255 18:255 32 0] 5 [1 2] [0 2 0 0->16] [0 0 0 0->0]
r 15.088310466 _20_ RTR  --- 8 DSR 120 [0 ffffffff 11 800] ------- [0:255 18:255 32 0] 5 [1 2] [0 2 0 0->16] [0 0 0 0->0]
r 15.088310661 _11_ RTR  --- 8 DSR 120 [0 ffffffff 11 800] ------- [0:255 18:255 32 0] 5 [1 2] [0 2 0 0->16] [0 0 0 0->0]
r 15.088310661 _16_ RTR  --- 8 DSR 120 [0 ffffffff 11 800] ------- [0:255 18:255 32 0] 5 [1 2] [0 2 0 0->16] [0 0 0 0->0]
s 15.089229451 _7_ AGT  --- 19 cbr 512 [0 0 0 0] ------- [7:0 11:0 32 0] [1] 0 0
r 15.089229451 _7_ RTR  --- 19 cbr 512 [0 0 0 0] ------- [7:0 11:0 32 0] [1] 0 0
SFESTs 15.089229451 _7_ 19 [7 -> 11] 1(1) to 11 [7 |11 ]
s 15.089229451 _7_ RTR  --- 19 cbr 548 [0 0 0 0] ------- [7:0 11:0 32 11] [1] 0 0
r 15.090522661 _5_ RTR  --- 8 DSR 68 [0 ffffffff 2 800] ------- [0:255 18:255 32 0] 3 [1 2] [0 2 0 0->16] [0 0 0 0->0]
r 15.090522994 _1_ RTR  --- 8 DSR 68 [0 ffffffff 2 800] ------- [0:255 18:255 32 0] 3 [1 2] [0 2 0 0->16] [0 0 0 0->0]
r 15.090522994 _8_ RTR  --- 8 DSR 68 [0 ffffffff 2 800] ------- [0:255 18:255 32 0] 3 [1 2] [0 2 0 0->16] [0 0 0 0->0]
r 15.090523073 _4_ RTR  --- 8 DSR 68 [0 ffffffff 2 800] ------- [0:255 18:255 32 0] 3 [1 2] [0 2 0 0->16] [0 0 0 0->0]
r 15.091864994 _2_ RTR  --- 8 DSR 92 [0 ffffffff 5 800] ------- [0:255 18:255 32 0] 4 [1 2] [0 2 0 0->16] [0 0 0 0->0]
r 15.091864994 _8_ RTR  --- 8 DSR 92 [0 ffffffff 5 800] ------- [0:255 18:255 32 0] 4 [1 2] [0 2 0 0->16] [0 0 0 0->0]
r 15.091865328 _4_ RTR  --- 8 DSR 92 [0 ffffffff 5 800] ------- [0:255 18:255 32 0] 4 [1 2] [0 2 0 0->16] [0 0 0 0->0]
r 15.091865328 _11_ RTR  --- 8 DSR 92 [0 ffffffff 5 800] ------- [0:255 18:255 32 0] 4 [1 2] [0 2 0 0->16] [0 0 0 0->0]
r 15.091865406 _7_ RTR  --- 8 DSR 92 [0 ffffffff 5 800] ------- [0:255 18:255 32 0] 4 [1 2] [0 2 0 0->16] [0 0 0 0->0]
r 15.091865406 _1_ RTR  --- 8 DSR 92 [0 ffffffff 5 800] ------- [0:255 18:255 32 0] 4 [1 2] [0 2 0 0->16] [0 0 0 0->0]
r 15.093954311 _6_ RTR  --- 9 DSR 60 [13a 6 15 800] ------- [18:255 0:255 253 6] 4 [0 2] [1 2 4 0->18] [0 0 0 0->0]
f 15.093954311 _6_ RTR  --- 9 DSR 60 [13a 6 15 800] ------- [18:255 0:255 252 0] 4 [0 2] [1 2 4 0->18] [0 0 0 0->0]
s 15.094308565 _18_ RTR  --- 17 DSR 68 [0 0 0 0] ------- [18:255 0:255 254 11] 5 [0 2] [1 2 5 0->18] [0 0 0 0->0]
s 15.095572386 _18_ RTR  --- 18 DSR 76 [0 0 0 0] ------- [18:255 0:255 254 17] 6 [0 2] [1 2 6 0->18] [0 0 0 0->0]
r 15.099877214 _11_ RTR  --- 19 cbr 548 [13a b 7 800] ------- [7:0 11:0 32 11] [1] 1 0
r 15.099877214 _11_ AGT  --- 19 cbr 512 [13a b 7 800] ------- [7:0 11:0 32 11] [1] 1 0
r 15.101876117 _6_ RTR  --- 13 DSR 60 [13a 6 a 800] ------- [18:255 0:255 253 6] 4 [0 2] [1 2 4 0->18] [0 0 0 0->0]
f 15.101876117 _6_ RTR  --- 13 DSR 60 [13a 6 a 800] ------- [18:255 0:255 252 0] 4 [0 2] [1 2 4 0->18] [0 0 0 0->0]
r 15.103854117 _0_ RTR  --- 9 DSR 60 [13a 0 6 800] ------- [18:255 0:255 252 0] 4 [0 2] [1 2 4 0->18] [0 0 0 0->0]
r 15.104930783 _0_ RTR  --- 14 DSR 32 [0 ffffffff 3 800] ------- [3:255 18:255 32 0] 1 [1 2] [0 2 0 0->16] [0 0 0 0->0]
r 15.104930783 _6_ RTR  --- 14 DSR 32 [0 ffffffff 3 800] ------- [3:255 18:255 32 0] 1 [1 2] [0 2 0 0->16] [0 0 0 0->0]
s 15.104930783 _0_ RTR  --- 20 DSR 56 [0 0 0 0] ------- [0:255 3:255 255 3] 2 [0 2] [1 2 5 3->18] [0 0 0 0->0]
r 15.104931117 _9_ RTR  --- 14 DSR 32 [0 ffffffff 3 800] ------- [3:255 18:255 32 0] 1 [1 2] [0 2 0 0->16] [0 0 0 0->0]