n -t * -s 0  -x 100 -y 0 -Z 0 -z 30  -v circle -c black
n -t * -s 1  -x 300 -y 0 -Z 0 -z 30  -v circle -c black
n -t * -s 2  -x 500 -y 0 -Z 0 -z 30  -v circle -c black
n -t * -s 3  -x 100 -y 100 -Z 0 -z 30  -v circle -c black
n -t * -s 4  -x 300 -y 100 -Z 0 -z 30  -v circle -c black
n -t * -s 5  -x 500 -y 100 -Z 0 -z 30  -v circle -c black
n -t * -s 6  -x 100 -y 200 -Z 0 -z 30  -v circle -c black
n -t * -s 7  -x 300 -y 200 -Z 0 -z 30  -v circle -c black
n -t * -s 8  -x 500 -y 200 -Z 0 -z 30  -v circle -c black
n -t * -s 9  -x 100 -y 300 -Z 0 -z 30  -v circle -c black
n -t * -s 10  -x 300 -y 300 -Z 0 -z 30  -v circle -c black
n -t * -s 11  -x 500 -y 300 -Z 0 -z 30  -v circle -c black
n -t * -s 12  -x 100 -y 400 -Z 0 -z 30  -v circle -c black
n -t * -s 13  -x 300 -y 400 -Z 0 -z 30  -v circle -c black
n -t * -s 14  -x 500 -y 400 -Z 0 -z 30  -v circle -c black
n -t * -s 15  -x 100 -y 500 -Z 0 -z 30  -v circle -c black
n -t * -s 16  -x 300 -y 500 -Z 0 -z 30  -v circle -c black
n -t * -s 17  -x 500 -y 500 -Z 0 -z 30  -v circle -c black
n -t * -s 18  -x 400 -y 500 -Z 0 -z 30  -v circle -c black
n -t * -s 19  -x 200 -y 500 -Z 0 -z 30  -v circle -c black
n -t * -s 20  -x 400 -y 400 -Z 0 -z 30  -v circle -c black
n -t * -s 21  -x 200 -y 400 -Z 0 -z 30  -v circle -c black
V -t * -v 1.0a5 -a 0
W -t * -x 500 -y 500
A -t * -n 1 -p 0 -o 0xffffffff -c 31 -a 1
A -t * -h 1 -m 2147483647 -s 0
+ -t 15.000000000 -s 0 -d -1 -p cbr -e 512 -c 2 -a 0 -i 0 -k AGT 
- -t 15.000000000 -s 0 -d -1 -p cbr -e 512 -c 2 -a 0 -i 0 -k AGT
h -t 15.000000000 -s 0 -d -1 -p cbr -e 512 -c 2 -a 0 -i 0 -k AGT
+ -t 15.000000000 -s 3 -d -1 -p cbr -e 512 -c 2 -a 0 -i 2 -k AGT 
- -t 15.000000000 -s 3 -d -1 -p cbr -e 512 -c 2 -a 0 -i 2 -k AGT
h -t 15.000000000 -s 3 -d -1 -p cbr -e 512 -c 2 -a 0 -i 2 -k AGT
+ -t 15.000000000 -s 7 -d -1 -p cbr -e 512 -c 2 -a 0 -i 4 -k AGT 
- -t 15.000000000 -s 7 -d -1 -p cbr -e 512 -c 2 -a 0 -i 4 -k AGT
h -t 15.000000000 -s 7 -d -1 -p cbr -e 512 -c 2 -a 0 -i 4 -k AGT
+ -t 15.000763926 -s 3 -d -1 -p DSR -e 32 -c 2 -a 0 -i 3 -k RTR 
- -t 15.000763926 -s 3 -d -1 -p DSR -e 32 -c 2 -a 0 -i 3 -k RTR
h -t 15.000763926 -s 3 -d -1 -p DSR -e 32 -c 2 -a 0 -i 3 -k RTR
+ -t 15.004917034 -s 7 -d -1 -p DSR -e 32 -c 2 -a 0 -i 5 -k RTR 
- -t 15.004917034 -s 7 -d -1 -p DSR -e 32 -c 2 -a 0 -i 5 -k RTR
h -t 15.004917034 -s 7 -d -1 -p DSR -e 32 -c 2 -a 0 -i 5 -k RTR
+ -t 15.007467171 -s 0 -d -1 -p DSR -e 32 -c 2 -a 0 -i 1 -k RTR 
- -t 15.007467171 -s 0 -d -1 -p DSR -e 32 -c 2 -a 0 -i 1 -k RTR
h -t 15.007467171 -s 0 -d -1 -p DSR -e 32 -c 2 -a 0 -i 1 -k RTR
+ -t 15.009739442 -s 11 -d 7 -p DSR -e 44 -c 2 -a 0 -i 6 -k RTR 
- -t 15.009739442 -s 11 -d 7 -p DSR -e 44 -c 2 -a 0 -i 6 -k RTR
h -t 15.009739442 -s 11 -d 7 -p DSR -e 44 -c 2 -a 0 -i 6 -k RTR
+ -t 15.011405678 -s 7 -d 11 -p cbr -e 548 -c 2 -a 0 -i 4 -k RTR 
- -t 15.011405678 -s 7 -d 11 -p cbr -e 548 -c 2 -a 0 -i 4 -k RTR
h -t 15.011405678 -s 7 -d 11 -p cbr -e 548 -c 2 -a 0 -i 4 -k RTR
r -t 15.017847915 -s 11 -d 11 -p cbr -e 512 -c 2 -a 0 -i 4 -k AGT
+ -t 15.046502039 -s 0 -d -1 -p DSR -e 32 -c 2 -a 0 -i 8 -k RTR 
- -t 15.046502039 -s 0 -d -1 -p DSR -e 32 -c 2 -a 0 -i 8 -k RTR
h -t 15.046502039 -s 0 -d -1 -p DSR -e 32 -c 2 -a 0 -i 8 -k RTR
+ -t 15.047611930 -s 6 -d -1 -p DSR -e 48 -c 2 -a 0 -i 8 -k RTR 
- -t 15.047611930 -s 6 -d -1 -p DSR -e 48 -c 2 -a 0 -i 8 -k RTR
h -t 15.047611930 -s 6 -d -1 -p DSR -e 48 -c 2 -a 0 -i 8 -k RTR
+ -t 15.048902596 -s 9 -d -1 -p DSR -e 68 -c 2 -a 0 -i 8 -k RTR 
- -t 15.048902596 -s 9 -d -1 -p DSR -e 68 -c 2 -a 0 -i 8 -k RTR
h -t 15.048902596 -s 9 -d -1 -p DSR -e 68 -c 2 -a 0 -i 8 -k RTR
+ -t 15.049673643 -s 1 -d -1 -p DSR -e 48 -c 2 -a 0 -i 8 -k RTR 
- -t 15.049673643 -s 1 -d -1 -p DSR -e 48 -c 2 -a 0 -i 8 -k RTR
h -t 15.049673643 -s 1 -d -1 -p DSR -e 48 -c 2 -a 0 -i 8 -k RTR
+ -t 15.050280245 -s 21 -d -1 -p DSR -e 68 -c 2 -a 0 -i 8 -k RTR 
- -t 15.050280245 -s 21 -d -1 -p DSR -e 68 -c 2 -a 0 -i 8 -k RTR
h -t 15.050280245 -s 21 -d -1 -p DSR -e 68 -c 2 -a 0 -i 8 -k RTR
+ -t 15.050777673 -s 7 -d -1 -p DSR -e 68 -c 2 -a 0 -i 8 -k RTR 
- -t 15.050777673 -s 7 -d -1 -p DSR -e 68 -c 2 -a 0 -i 8 -k RTR
h -t 15.050777673 -s 7 -d -1 -p DSR -e 68 -c 2 -a 0 -i 8 -k RTR
+ -t 15.051560951 -s 15 -d -1 -p DSR -e 92 -c 2 -a 0 -i 8 -k RTR 
- -t 15.051560951 -s 15 -d -1 -p DSR -e 92 -c 2 -a 0 -i 8 -k RTR
h -t 15.051560951 -s 15 -d -1 -p DSR -e 92 -c 2 -a 0 -i 8 -k RTR
+ -t 15.052080222 -s 19 -d -1 -p DSR -e 92 -c 2 -a 0 -i 8 -k RTR 
- -t 15.052080222 -s 19 -d -1 -p DSR -e 92 -c 2 -a 0 -i 8 -k RTR
h -t 15.052080222 -s 19 -d -1 -p DSR -e 92 -c 2 -a 0 -i 8 -k RTR
+ -t 15.053904814 -s 12 -d -1 -p DSR -e 68 -c 2 -a 0 -i 8 -k RTR 
- -t 15.053904814 -s 12 -d -1 -p DSR -e 68 -c 2 -a 0 -i 8 -k RTR
h -t 15.053904814 -s 12 -d -1 -p DSR -e 68 -c 2 -a 0 -i 8 -k RTR
+ -t 15.053930448 -s 10 -d -1 -p DSR -e 68 -c 2 -a 0 -i 8 -k RTR 
- -t 15.053930448 -s 10 -d -1 -p DSR -e 68 -c 2 -a 0 -i 8 -k RTR
h -t 15.053930448 -s 10 -d -1 -p DSR -e 68 -c 2 -a 0 -i 8 -k RTR
+ -t 15.054929280 -s 13 -d -1 -p DSR -e 92 -c 2 -a 0 -i 8 -k RTR 
- -t 15.054929280 -s 13 -d -1 -p DSR -e 92 -c 2 -a 0 -i 8 -k RTR
h -t 15.054929280 -s 13 -d -1 -p DSR -e 92 -c 2 -a 0 -i 8 -k RTR
+ -t 15.055457286 -s 18 -d 21 -p DSR -e 60 -c 2 -a 0 -i 9 -k RTR 
- -t 15.055457286 -s 18 -d 21 -p DSR -e 60 -c 2 -a 0 -i 9 -k RTR
h -t 15.055457286 -s 18 -d 21 -p DSR -e 60 -c 2 -a 0 -i 9 -k RTR
+ -t 15.055568680 -s 3 -d -1 -p DSR -e 48 -c 2 -a 0 -i 8 -k RTR 
- -t 15.055568680 -s 3 -d -1 -p DSR -e 48 -c 2 -a 0 -i 8 -k RTR
h -t 15.055568680 -s 3 -d -1 -p DSR -e 48 -c 2 -a 0 -i 8 -k RTR
+ -t 15.055755375 -s 4 -d -1 -p DSR -e 48 -c 2 -a 0 -i 8 -k RTR 
- -t 15.055755375 -s 4 -d -1 -p DSR -e 48 -c 2 -a 0 -i 8 -k RTR
h -t 15.055755375 -s 4 -d -1 -p DSR -e 48 -c 2 -a 0 -i 8 -k RTR
+ -t 15.056256039 -s 8 -d -1 -p DSR -e 92 -c 2 -a 0 -i 8 -k RTR 
- -t 15.056256039 -s 8 -d -1 -p DSR -e 92 -c 2 -a 0 -i 8 -k RTR
h -t 15.056256039 -s 8 -d -1 -p DSR -e 92 -c 2 -a 0 -i 8 -k RTR
+ -t 15.058979835 -s 20 -d -1 -p DSR -e 92 -c 2 -a 0 -i 8 -k RTR 
- -t 15.058979835 -s 20 -d -1 -p DSR -e 92 -c 2 -a 0 -i 8 -k RTR
h -t 15.058979835 -s 20 -d -1 -p DSR -e 92 -c 2 -a 0 -i 8 -k RTR
+ -t 15.059275781 -s 18 -d 19 -p DSR -e 68 -c 2 -a 0 -i 11 -k RTR 
- -t 15.059275781 -s 18 -d 19 -p DSR -e 68 -c 2 -a 0 -i 11 -k RTR
h -t 15.059275781 -s 18 -d 19 -p DSR -e 68 -c 2 -a 0 -i 11 -k RTR
+ -t 15.059364180 -s 11 -d -1 -p DSR -e 92 -c 2 -a 0 -i 8 -k RTR 
- -t 15.059364180 -s 11 -d -1 -p DSR -e 92 -c 2 -a 0 -i 8 -k RTR
h -t 15.059364180 -s 11 -d -1 -p DSR -e 92 -c 2 -a 0 -i 8 -k RTR
+ -t 15.059686937 -s 16 -d -1 -p DSR -e 92 -c 2 -a 0 -i 8 -k RTR 
- -t 15.059686937 -s 16 -d -1 -p DSR -e 92 -c 2 -a 0 -i 8 -k RTR
h -t 15.059686937 -s 16 -d -1 -p DSR -e 92 -c 2 -a 0 -i 8 -k RTR
+ -t 15.059720794 -s 5 -d -1 -p DSR -e 92 -c 2 -a 0 -i 8 -k RTR 
- -t 15.059720794 -s 5 -d -1 -p DSR -e 92 -c 2 -a 0 -i 8 -k RTR
h -t 15.059720794 -s 5 -d -1 -p DSR -e 92 -c 2 -a 0 -i 8 -k RTR
+ -t 15.060164862 -s 17 -d -1 -p DSR -e 120 -c 2 -a 0 -i 8 -k RTR 
- -t 15.060164862 -s 17 -d -1 -p DSR -e 120 -c 2 -a 0 -i 8 -k RTR
h -t 15.060164862 -s 17 -d -1 -p DSR -e 120 -c 2 -a 0 -i 8 -k RTR
+ -t 15.061428673 -s 2 -d -1 -p DSR -e 68 -c 2 -a 0 -i 8 -k RTR 
- -t 15.061428673 -s 2 -d -1 -p DSR -e 68 -c 2 -a 0 -i 8 -k RTR
h -t 15.061428673 -s 2 -d -1 -p DSR -e 68 -c 2 -a 0 -i 8 -k RTR
+ -t 15.063418923 -s 18 -d 20 -p DSR -e 68 -c 2 -a 0 -i 12 -k RTR 
- -t 15.063418923 -s 18 -d 20 -p DSR -e 68 -c 2 -a 0 -i 12 -k RTR
h -t 15.063418923 -s 18 -d 20 -p DSR -e 68 -c 2 -a 0 -i 12 -k RTR
+ -t 15.063547533 -s 21 -d 6 -p DSR -e 60 -c 2 -a 0 -i 9 -k RTR 
- -t 15.063547533 -s 21 -d 6 -p DSR -e 60 -c 2 -a 0 -i 9 -k RTR
h -t 15.063547533 -s 21 -d 6 -p DSR -e 60 -c 2 -a 0 -i 9 -k RTR
+ -t 15.065063961 -s 18 -d 13 -p DSR -e 68 -c 2 -a 0 -i 10 -k RTR 
- -t 15.065063961 -s 18 -d 13 -p DSR -e 68 -c 2 -a 0 -i 10 -k RTR
h -t 15.065063961 -s 18 -d 13 -p DSR -e 68 -c 2 -a 0 -i 10 -k RTR
+ -t 15.065609279 -s 20 -d 21 -p DSR -e 68 -c 2 -a 0 -i 12 -k RTR 
- -t 15.065609279 -s 20 -d 21 -p DSR -e 68 -c 2 -a 0 -i 12 -k RTR
h -t 15.065609279 -s 20 -d 21 -p DSR -e 68 -c 2 -a 0 -i 12 -k RTR
+ -t 15.066238255 -s 14 -d -1 -p DSR -e 120 -c 2 -a 0 -i 8 -k RTR 
- -t 15.066238255 -s 14 -d -1 -p DSR -e 120 -c 2 -a 0 -i 8 -k RTR
h -t 15.066238255 -s 14 -d -1 -p DSR -e 120 -c 2 -a 0 -i 8 -k RTR
+ -t 15.069070087 -s 18 -d 10 -p DSR -e 60 -c 2 -a 0 -i 13 -k RTR 
- -t 15.069070087 -s 18 -d 10 -p DSR -e 60 -c 2 -a 0 -i 13 -k RTR
h -t 15.069070087 -s 18 -d 10 -p DSR -e 60 -c 2 -a 0 -i 13 -k RTR
+ -t 15.070340381 -s 13 -d 9 -p DSR -e 68 -c 2 -a 0 -i 10 -k RTR 
- -t 15.070340381 -s 13 -d 9 -p DSR -e 68 -c 2 -a 0 -i 10 -k RTR
h -t 15.070340381 -s 13 -d 9 -p DSR -e 68 -c 2 -a 0 -i 10 -k RTR
+ -t 15.070707408 -s 3 -d -1 -p DSR -e 32 -c 2 -a 0 -i 14 -k RTR 
- -t 15.070707408 -s 3 -d -1 -p DSR -e 32 -c 2 -a 0 -i 14 -k RTR
h -t 15.070707408 -s 3 -d -1 -p DSR -e 32 -c 2 -a 0 -i 14 -k RTR
+ -t 15.072362617 -s 9 -d 6 -p DSR -e 68 -c 2 -a 0 -i 10 -k RTR 
- -t 15.072362617 -s 9 -d 6 -p DSR -e 68 -c 2 -a 0 -i 10 -k RTR
h -t 15.072362617 -s 9 -d 6 -p DSR -e 68 -c 2 -a 0 -i 10 -k RTR
+ -t 15.074503617 -s 6 -d 0 -p DSR -e 68 -c 2 -a 0 -i 10 -k RTR 
- -t 15.074503617 -s 6 -d 0 -p DSR -e 68 -c 2 -a 0 -i 10 -k RTR
h -t 15.074503617 -s 6 -d 0 -p DSR -e 68 -c 2 -a 0 -i 10 -k RTR
+ -t 15.074531059 -s 18 -d 16 -p DSR -e 68 -c 2 -a 0 -i 15 -k RTR 
- -t 15.074531059 -s 18 -d 16 -p DSR -e 68 -c 2 -a 0 -i 15 -k RTR
h -t 15.074531059 -s 18 -d 16 -p DSR -e 68 -c 2 -a 0 -i 15 -k RTR
+ -t 15.076565617 -s 0 -d 6 -p cbr -e 560 -c 2 -a 0 -i 0 -k RTR 
- -t 15.076565617 -s 0 -d 6 -p cbr -e 560 -c 2 -a 0 -i 0 -k RTR
h -t 15.076565617 -s 0 -d 6 -p cbr -e 560 -c 2 -a 0 -i 0 -k RTR
+ -t 15.078472171 -s 18 -d 14 -p DSR -e 76 -c 2 -a 0 -i 16 -k RTR 
- -t 15.078472171 -s 18 -d 14 -p DSR -e 76 -c 2 -a 0 -i 16 -k RTR
h -t 15.078472171 -s 18 -d 14 -p DSR -e 76 -c 2 -a 0 -i 16 -k RTR
+ -t 15.081061853 -s 21 -d 6 -p DSR -e 68 -c 2 -a 0 -i 12 -k RTR 
- -t 15.081061853 -s 21 -d 6 -p DSR -e 68 -c 2 -a 0 -i 12 -k RTR
h -t 15.081061853 -s 21 -d 6 -p DSR -e 68 -c 2 -a 0 -i 12 -k RTR
+ -t 15.083100835 -s 10 -d 6 -p DSR -e 60 -c 2 -a 0 -i 13 -k RTR 
- -t 15.083100835 -s 10 -d 6 -p DSR -e 60 -c 2 -a 0 -i 13 -k RTR
h -t 15.083100835 -s 10 -d 6 -p DSR -e 60 -c 2 -a 0 -i 13 -k RTR
+ -t 15.086529661 -s 14 -d 13 -p DSR -e 76 -c 2 -a 0 -i 16 -k RTR 
- -t 15.086529661 -s 14 -d 13 -p DSR -e 76 -c 2 -a 0 -i 16 -k RTR
h -t 15.086529661 -s 14 -d 13 -p DSR -e 76 -c 2 -a 0 -i 16 -k RTR
+ -t 15.089229451 -s 7 -d -1 -p cbr -e 512 -c 2 -a 0 -i 19 -k AGT 
- -t 15.089229451 -s 7 -d -1 -p cbr -e 512 -c 2 -a 0 -i 19 -k AGT
h -t 15.089229451 -s 7 -d -1 -p cbr -e 512 -c 2 -a 0 -i 19 -k AGT
+ -t 15.089229451 -s 7 -d 11 -p cbr -e 548 -c 2 -a 0 -i 19 -k RTR 
- -t 15.089229451 -s 7 -d 11 -p cbr -e 548 -c 2 -a 0 -i 19 -k RTR
h -t 15.089229451 -s 7 -d 11 -p cbr -e 548 -c 2 -a 0 -i 19 -k RTR
+ -t 15.093954311 -s 6 -d 0 -p DSR -e 60 -c 2 -a 0 -i 9 -k RTR 
- -t 15.093954311 -s 6 -d 0 -p DSR -e 60 -c 2 -a 0 -i 9 -k RTR
h -t 15.093954311 -s 6 -d 0 -p DSR -e 60 -c 2 -a 0 -i 9 -k RTR
+ -t 15.094308565 -s 18 -d 11 -p DSR -e 68 -c 2 -a 0 -i 17 -k RTR 
- -t 15.094308565 -s 18 -d 11 -p DSR -e 68 -c 2 -a 0 -i 17 -k RTR
h -t 15.094308565 -s 18 -d 11 -p DSR -e 68 -c 2 -a 0 -i 17 -k RTR
+ -t 15.095572386 -s 18 -d 17 -p DSR -e 76 -c 2 -a 0 -i 18 -k RTR 
- -t 15.095572386 -s 18 -d 17 -p DSR -e 76 -c 2 -a 0 -i 18 -k RTR
h -t 15.095572386 -s 18 -d 17 -p DSR -e 76 -c 2 -a 0 -i 18 -k RTR
r -t 15.099877214 -s 11 -d 11 -p cbr -e 512 -c 2 -a 0 -i 19 -k AGT
+ -t 15.101876117 -s 6 -d 0 -p DSR -e 60 -c 2 -a 0 -i 13 -k RTR 
- -t 15.101876117 -s 6 -d 0 -p DSR -e 60 -c 2 -a 0 -i 13 -k RTR
h -t 15.101876117 -s 6 -d 0 -p DSR -e 60 -c 2 -a 0 -i 13 -k RTR
+ -t 15.104930783 -s 0 -d 3 -p DSR -e 56 -c 2 -a 0 -i 20 -k RTR 
- -t 15.104930783 -s 0 -d 3 -p DSR -e 56 -c 2 -a 0 -i 20 -k RTR
h -t 15.104930783 -s 0 -d 3 -p DSR -e 56 -c 2 -a 0 -i 20 -k RTR
+ -t 15.104931117 -s 9 -d 3 -p DSR -e 52 -c 2 -a 0 -i 21 -k RTR 
- -t 15.104931117 -s 9 -d 3 -p DSR -e 52 -c 2 -a 0 -i 21 -k RTR
h -t 15.104931117 -s 9 -d 3 -p DSR -e 52 -c 2 -a 0 -i 21 -k RTR
+ -t 15.105870004 -s 7 -d -1 -p DSR -e 48 -c 2 -a 0 -i 14 -k RTR 
- -t 15.105870004 -s 7 -d -1 -p DSR -e 48 -c 2 -a 0 -i 14 -k RTR
h -t 15.105870004 -s 7 -d -1 -p DSR -e 48 -c 2 -a 0 -i 14 -k RTR
+ -t 15.105898875 -s 0 -d -1 -p cbr -e 512 -c 2 -a 0 -i 22 -k AGT 
- -t 15.105898875 -s 0 -d -1 -p cbr -e 512 -c 2 -a 0 -i 22 -k AGT
h -t 15.105898875 -s 0 -d -1 -p cbr -e 512 -c 2 -a 0 -i 22 -k AGT
+ -t 15.105898875 -s 0 -d 6 -p cbr -e 556 -c 2 -a 0 -i 22 -k RTR 
- -t 15.105898875 -s 0 -d 6 -p cbr -e 556 -c 2 -a 0 -i 22 -k RTR
h -t 15.105898875 -s 0 -d 6 -p cbr -e 556 -c 2 -a 0 -i 22 -k RTR
+ -t 15.106303617 -s 6 -d -1 -p DSR -e 48 -c 2 -a 0 -i 14 -k RTR 
- -t 15.106303617 -s 6 -d -1 -p DSR -e 48 -c 2 -a 0 -i 14 -k RTR
h -t 15.106303617 -s 6 -d -1 -p DSR -e 48 -c 2 -a 0 -i 14 -k RTR
+ -t 15.109166531 -s 16 -d 21 -p DSR -e 68 -c 2 -a 0 -i 15 -k RTR 
- -t 15.109166531 -s 16 -d 21 -p DSR -e 68 -c 2 -a 0 -i 15 -k RTR
h -t 15.109166531 -s 16 -d 21 -p DSR -e 68 -c 2 -a 0 -i 15 -k RTR
+ -t 15.111238552 -s 10 -d 7 -p DSR -e 56 -c 2 -a 0 -i 23 -k RTR 
- -t 15.111238552 -s 10 -d 7 -p DSR -e 56 -c 2 -a 0 -i 23 -k RTR
h -t 15.111238552 -s 10 -d 7 -p DSR -e 56 -c 2 -a 0 -i 23 -k RTR
+ -t 15.111238886 -s 13 -d 7 -p DSR -e 56 -c 2 -a 0 -i 24 -k RTR 
- -t 15.111238886 -s 13 -d 7 -p DSR -e 56 -c 2 -a 0 -i 24 -k RTR
h -t 15.111238886 -s 13 -d 7 -p DSR -e 56 -c 2 -a 0 -i 24 -k RTR
+ -t 15.111238964 -s 21 -d 7 -p DSR -e 56 -c 2 -a 0 -i 25 -k RTR 
- -t 15.111238964 -s 21 -d 7 -p DSR -e 56 -c 2 -a 0 -i 25 -k RTR
h -t 15.111238964 -s 21 -d 7 -p DSR -e 56 -c 2 -a 0 -i 25 -k RTR
+ -t 15.111238964 -s 20 -d 7 -p DSR -e 56 -c 2 -a 0 -i 26 -k RTR 
- -t 15.111238964 -s 20 -d 7 -p DSR -e 56 -c 2 -a 0 -i 26 -k RTR
h -t 15.111238964 -s 20 -d 7 -p DSR -e 56 -c 2 -a 0 -i 26 -k RTR
+ -t 15.111238964 -s 11 -d 7 -p DSR -e 56 -c 2 -a 0 -i 27 -k RTR 
- -t 15.111238964 -s 11 -d 7 -p DSR -e 56 -c 2 -a 0 -i 27 -k RTR
h -t 15.111238964 -s 11 -d 7 -p DSR -e 56 -c 2 -a 0 -i 27 -k RTR
+ -t 15.112799081 -s 12 -d -1 -p DSR -e 68 -c 2 -a 0 -i 14 -k RTR 
- -t 15.112799081 -s 12 -d -1 -p DSR -e 68 -c 2 -a 0 -i 14 -k RTR
h -t 15.112799081 -s 12 -d -1 -p DSR -e 68 -c 2 -a 0 -i 14 -k RTR
+ -t 15.113108933 -s 4 -d -1 -p DSR -e 48 -c 2 -a 0 -i 14 -k RTR 
- -t 15.113108933 -s 4 -d -1 -p DSR -e 48 -c 2 -a 0 -i 14 -k RTR
h -t 15.113108933 -s 4 -d -1 -p DSR -e 48 -c 2 -a 0 -i 14 -k RTR
+ -t 15.114086848 -s 19 -d 12 -p DSR -e 64 -c 2 -a 0 -i 28 -k RTR 
- -t 15.114086848 -s 19 -d 12 -p DSR -e 64 -c 2 -a 0 -i 28 -k RTR
h -t 15.114086848 -s 19 -d 12 -p DSR -e 64 -c 2 -a 0 -i 28 -k RTR
+ -t 15.114087122 -s 16 -d 12 -p DSR -e 64 -c 2 -a 0 -i 29 -k RTR 
- -t 15.114087122 -s 16 -d 12 -p DSR -e 64 -c 2 -a 0 -i 29 -k RTR
h -t 15.114087122 -s 16 -d 12 -p DSR -e 64 -c 2 -a 0 -i 29 -k RTR
+ -t 15.114090226 -s 8 -d -1 -p DSR -e 68 -c 2 -a 0 -i 14 -k RTR 
- -t 15.114090226 -s 8 -d -1 -p DSR -e 68 -c 2 -a 0 -i 14 -k RTR
h -t 15.114090226 -s 8 -d -1 -p DSR -e 68 -c 2 -a 0 -i 14 -k RTR
+ -t 15.114536567 -s 1 -d -1 -p DSR -e 48 -c 2 -a 0 -i 14 -k RTR 
- -t 15.114536567 -s 1 -d -1 -p DSR -e 48 -c 2 -a 0 -i 14 -k RTR
h -t 15.114536567 -s 1 -d -1 -p DSR -e 48 -c 2 -a 0 -i 14 -k RTR
+ -t 15.115758122 -s 7 -d 3 -p DSR -e 56 -c 2 -a 0 -i 23 -k RTR 
- -t 15.115758122 -s 7 -d 3 -p DSR -e 56 -c 2 -a 0 -i 23 -k RTR
h -t 15.115758122 -s 7 -d 3 -p DSR -e 56 -c 2 -a 0 -i 23 -k RTR
+ -t 15.117103455 -s 14 -d 8 -p DSR -e 64 -c 2 -a 0 -i 31 -k RTR 
- -t 15.117103455 -s 14 -d 8 -p DSR -e 64 -c 2 -a 0 -i 31 -k RTR
h -t 15.117103455 -s 14 -d 8 -p DSR -e 64 -c 2 -a 0 -i 31 -k RTR
+ -t 15.118220932 -s 3 -d -1 -p cbr -e 512 -c 2 -a 0 -i 32 -k AGT 
- -t 15.118220932 -s 3 -d -1 -p cbr -e 512 -c 2 -a 0 -i 32 -k AGT
h -t 15.118220932 -s 3 -d -1 -p cbr -e 512 -c 2 -a 0 -i 32 -k AGT
+ -t 15.118755358 -s 7 -d 3 -p DSR -e 56 -c 2 -a 0 -i 27 -k RTR 
- -t 15.118755358 -s 7 -d 3 -p DSR -e 56 -c 2 -a 0 -i 27 -k RTR
h -t 15.118755358 -s 7 -d 3 -p DSR -e 56 -c 2 -a 0 -i 27 -k RTR
+ -t 15.119383254 -s 5 -d -1 -p DSR -e 68 -c 2 -a 0 -i 14 -k RTR 
- -t 15.119383254 -s 5 -d -1 -p DSR -e 68 -c 2 -a 0 -i 14 -k RTR
h -t 15.119383254 -s 5 -d -1 -p DSR -e 68 -c 2 -a 0 -i 14 -k RTR
+ -t 15.120905405 -s 15 -d -1 -p DSR -e 92 -c 2 -a 0 -i 14 -k RTR 
- -t 15.120905405 -s 15 -d -1 -p DSR -e 92 -c 2 -a 0 -i 14 -k RTR
h -t 15.120905405 -s 15 -d -1 -p DSR -e 92 -c 2 -a 0 -i 14 -k RTR
+ -t 15.121498605 -s 2 -d -1 -p DSR -e 92 -c 2 -a 0 -i 14 -k RTR 
- -t 15.121498605 -s 2 -d -1 -p DSR -e 92 -c 2 -a 0 -i 14 -k RTR
h -t 15.121498605 -s 2 -d -1 -p DSR -e 92 -c 2 -a 0 -i 14 -k RTR
+ -t 15.121588437 -s 7 -d 3 -p DSR -e 56 -c 2 -a 0 -i 24 -k RTR 
- -t 15.121588437 -s 7 -d 3 -p DSR -e 56 -c 2 -a 0 -i 24 -k RTR
h -t 15.121588437 -s 7 -d 3 -p DSR -e 56 -c 2 -a 0 -i 24 -k RTR
+ -t 15.123555418 -s 7 -d 3 -p DSR -e 56 -c 2 -a 0 -i 26 -k RTR 
- -t 15.123555418 -s 7 -d 3 -p DSR -e 56 -c 2 -a 0 -i 26 -k RTR
h -t 15.123555418 -s 7 -d 3 -p DSR -e 56 -c 2 -a 0 -i 26 -k RTR
+ -t 15.127796367 -s 12 -d 6 -p DSR -e 64 -c 2 -a 0 -i 28 -k RTR 
- -t 15.127796367 -s 12 -d 6 -p DSR -e 64 -c 2 -a 0 -i 28 -k RTR
h -t 15.127796367 -s 12 -d 6 -p DSR -e 64 -c 2 -a 0 -i 28 -k RTR
+ -t 15.129938937 -s 6 -d 0 -p DSR -e 68 -c 2 -a 0 -i 12 -k RTR 
- -t 15.129938937 -s 6 -d 0 -p DSR -e 68 -c 2 -a 0 -i 12 -k RTR
h -t 15.129938937 -s 6 -d 0 -p DSR -e 68 -c 2 -a 0 -i 12 -k RTR
+ -t 15.131929603 -s 6 -d 3 -p DSR -e 64 -c 2 -a 0 -i 28 -k RTR 
- -t 15.131929603 -s 6 -d 3 -p DSR -e 64 -c 2 -a 0 -i 28 -k RTR
h -t 15.131929603 -s 6 -d 3 -p DSR -e 64 -c 2 -a 0 -i 28 -k RTR
+ -t 15.135547351 -s 17 -d 13 -p DSR -e 76 -c 2 -a 0 -i 18 -k RTR 
- -t 15.135547351 -s 17 -d 13 -p DSR -e 76 -c 2 -a 0 -i 18 -k RTR
h -t 15.135547351 -s 17 -d 13 -p DSR -e 76 -c 2 -a 0 -i 18 -k RTR
+ -t 15.138018270 -s 6 -d 9 -p cbr -e 560 -c 2 -a 0 -i 0 -k RTR 
- -t 15.138018270 -s 6 -d 9 -p cbr -e 560 -c 2 -a 0 -i 0 -k RTR
h -t 15.138018270 -s 6 -d 9 -p cbr -e 560 -c 2 -a 0 -i 0 -k RTR
+ -t 15.140042603 -s 3 -d 9 -p cbr -e 556 -c 2 -a 0 -i 2 -k RTR 
- -t 15.140042603 -s 3 -d 9 -p cbr -e 556 -c 2 -a 0 -i 2 -k RTR
h -t 15.140042603 -s 3 -d 9 -p cbr -e 556 -c 2 -a 0 -i 2 -k RTR
+ -t 15.146969546 -s 9 -d 13 -p cbr -e 556 -c 2 -a 0 -i 2 -k RTR 
- -t 15.146969546 -s 9 -d 13 -p cbr -e 556 -c 2 -a 0 -i 2 -k RTR
h -t 15.146969546 -s 9 -d 13 -p cbr -e 556 -c 2 -a 0 -i 2 -k RTR
+ -t 15.158124156 -s 6 -d 21 -p cbr -e 556 -c 2 -a 0 -i 22 -k RTR 
- -t 15.158124156 -s 6 -d 21 -p cbr -e 556 -c 2 -a 0 -i 22 -k RTR
h -t 15.158124156 -s 6 -d 21 -p cbr -e 556 -c 2 -a 0 -i 22 -k RTR
+ -t 15.166294532 -s 9 -d 13 -p cbr -e 560 -c 2 -a 0 -i 0 -k RTR 
- -t 15.166294532 -s 9 -d 13 -p cbr -e 560 -c 2 -a 0 -i 0 -k RTR
h -t 15.166294532 -s 9 -d 13 -p cbr -e 560 -c 2 -a 0 -i 0 -k RTR
+ -t 15.168974109 -s 3 -d -1 -p cbr -e 512 -c 2 -a 0 -i 34 -k AGT 
- -t 15.168974109 -s 3 -d -1 -p cbr -e 512 -c 2 -a 0 -i 34 -k AGT
h -t 15.168974109 -s 3 -d -1 -p cbr -e 512 -c 2 -a 0 -i 34 -k AGT
+ -t 15.168974109 -s 3 -d 9 -p cbr -e 556 -c 2 -a 0 -i 34 -k RTR 
- -t 15.168974109 -s 3 -d 9 -p cbr -e 556 -c 2 -a 0 -i 34 -k RTR
h -t 15.168974109 -s 3 -d 9 -p cbr -e 556 -c 2 -a 0 -i 34 -k RTR
+ -t 15.170042603 -s 3 -d 9 -p cbr -e 556 -c 2 -a 0 -i 32 -k RTR 
- -t 15.170042603 -s 3 -d 9 -p cbr -e 556 -c 2 -a 0 -i 32 -k RTR
h -t 15.170042603 -s 3 -d 9 -p cbr -e 556 -c 2 -a 0 -i 32 -k RTR
+ -t 15.174308416 -s 13 -d 18 -p cbr -e 556 -c 2 -a 0 -i 2 -k RTR 
- -t 15.174308416 -s 13 -d 18 -p cbr -e 556 -c 2 -a 0 -i 2 -k RTR
h -t 15.174308416 -s 13 -d 18 -p cbr -e 556 -c 2 -a 0 -i 2 -k RTR
+ -t 15.176401109 -s 11 -d 7 -p DSR -e 68 -c 2 -a 0 -i 17 -k RTR 
- -t 15.176401109 -s 11 -d 7 -p DSR -e 68 -c 2 -a 0 -i 17 -k RTR
h -t 15.176401109 -s 11 -d 7 -p DSR -e 68 -c 2 -a 0 -i 17 -k RTR
+ -t 15.176732304 -s 7 -d -1 -p cbr -e 512 -c 2 -a 0 -i 35 -k AGT 
- -t 15.176732304 -s 7 -d -1 -p cbr -e 512 -c 2 -a 0 -i 35 -k AGT
h -t 15.176732304 -s 7 -d -1 -p cbr -e 512 -c 2 -a 0 -i 35 -k AGT
+ -t 15.176732304 -s 7 -d 11 -p cbr -e 548 -c 2 -a 0 -i 35 -k RTR 
- -t 15.176732304 -s 7 -d 11 -p cbr -e 548 -c 2 -a 0 -i 35 -k RTR
h -t 15.176732304 -s 7 -d 11 -p cbr -e 548 -c 2 -a 0 -i 35 -k RTR
+ -t 15.178403854 -s 19 -d 9 -p DSR -e 68 -c 2 -a 0 -i 11 -k RTR 
- -t 15.178403854 -s 19 -d 9 -p DSR -e 68 -c 2 -a 0 -i 11 -k RTR
h -t 15.178403854 -s 19 -d 9 -p DSR -e 68 -c 2 -a 0 -i 11 -k RTR
+ -t 15.180445602 -s 21 -d 6 -p DSR -e 68 -c 2 -a 0 -i 15 -k RTR 
- -t 15.180445602 -s 21 -d 6 -p DSR -e 68 -c 2 -a 0 -i 15 -k RTR
h -t 15.180445602 -s 21 -d 6 -p DSR -e 68 -c 2 -a 0 -i 15 -k RTR
+ -t 15.182468171 -s 9 -d 6 -p DSR -e 68 -c 2 -a 0 -i 11 -k RTR 
- -t 15.182468171 -s 9 -d 6 -p DSR -e 68 -c 2 -a 0 -i 11 -k RTR
h -t 15.182468171 -s 9 -d 6 -p DSR -e 68 -c 2 -a 0 -i 11 -k RTR
+ -t 15.184394879 -s 7 -d 3 -p DSR -e 56 -c 2 -a 0 -i 25 -k RTR 
- -t 15.184394879 -s 7 -d 3 -p DSR -e 56 -c 2 -a 0 -i 25 -k RTR
h -t 15.184394879 -s 7 -d 3 -p DSR -e 56 -c 2 -a 0 -i 25 -k RTR
+ -t 15.186497860 -s 6 -d 0 -p DSR -e 68 -c 2 -a 0 -i 15 -k RTR 
- -t 15.186497860 -s 6 -d 0 -p DSR -e 68 -c 2 -a 0 -i 15 -k RTR
h -t 15.186497860 -s 6 -d 0 -p DSR -e 68 -c 2 -a 0 -i 15 -k RTR
+ -t 15.192504096 -s 21 -d 18 -p cbr -e 556 -c 2 -a 0 -i 22 -k RTR 
- -t 15.192504096 -s 21 -d 18 -p cbr -e 556 -c 2 -a 0 -i 22 -k RTR
h -t 15.192504096 -s 21 -d 18 -p cbr -e 556 -c 2 -a 0 -i 22 -k RTR
+ -t 15.198482804 -s 13 -d 18 -p cbr -e 560 -c 2 -a 0 -i 0 -k RTR 
- -t 15.198482804 -s 13 -d 18 -p cbr -e 560 -c 2 -a 0 -i 0 -k RTR
h -t 15.198482804 -s 13 -d 18 -p cbr -e 560 -c 2 -a 0 -i 0 -k RTR
r -t 15.204469373 -s 18 -d 18 -p cbr -e 512 -c 2 -a 0 -i 22 -k AGT
+ -t 15.206561918 -s 7 -d 6 -p DSR -e 68 -c 2 -a 0 -i 17 -k RTR 
- -t 15.206561918 -s 7 -d 6 -p DSR -e 68 -c 2 -a 0 -i 17 -k RTR
h -t 15.206561918 -s 7 -d 6 -p DSR -e 68 -c 2 -a 0 -i 17 -k RTR
+ -t 15.213555786 -s 9 -d 13 -p cbr -e 556 -c 2 -a 0 -i 34 -k RTR 
- -t 15.213555786 -s 9 -d 13 -p cbr -e 556 -c 2 -a 0 -i 34 -k RTR
h -t 15.213555786 -s 9 -d 13 -p cbr -e 556 -c 2 -a 0 -i 34 -k RTR
+ -t 15.215636786 -s 6 -d 0 -p DSR -e 68 -c 2 -a 0 -i 11 -k RTR 
- -t 15.215636786 -s 6 -d 0 -p DSR -e 68 -c 2 -a 0 -i 11 -k RTR
h -t 15.215636786 -s 6 -d 0 -p DSR -e 68 -c 2 -a 0 -i 11 -k RTR
+ -t 15.226087786 -s 9 -d 13 -p cbr -e 556 -c 2 -a 0 -i 32 -k RTR 
- -t 15.226087786 -s 9 -d 13 -p cbr -e 556 -c 2 -a 0 -i 32 -k RTR
h -t 15.226087786 -s 9 -d 13 -p cbr -e 556 -c 2 -a 0 -i 32 -k RTR
+ -t 15.229217313 -s 0 -d -1 -p cbr -e 512 -c 2 -a 0 -i 36 -k AGT 
- -t 15.229217313 -s 0 -d -1 -p cbr -e 512 -c 2 -a 0 -i 36 -k AGT
h -t 15.229217313 -s 0 -d -1 -p cbr -e 512 -c 2 -a 0 -i 36 -k AGT
+ -t 15.229217313 -s 0 -d 6 -p cbr -e 556 -c 2 -a 0 -i 36 -k RTR 
- -t 15.229217313 -s 0 -d 6 -p cbr -e 556 -c 2 -a 0 -i 36 -k RTR
h -t 15.229217313 -s 0 -d 6 -p cbr -e 556 -c 2 -a 0 -i 36 -k RTR
r -t 15.232143736 -s 18 -d 18 -p cbr -e 512 -c 2 -a 0 -i 2 -k AGT
+ -t 15.234354305 -s 12 -d 6 -p DSR -e 64 -c 2 -a 0 -i 29 -k RTR 
- -t 15.234354305 -s 12 -d 6 -p DSR -e 64 -c 2 -a 0 -i 29 -k RTR
h -t 15.234354305 -s 12 -d 6 -p DSR -e 64 -c 2 -a 0 -i 29 -k RTR
+ -t 15.236880379 -s 7 -d -1 -p cbr -e 512 -c 2 -a 0 -i 37 -k AGT 
- -t 15.236880379 -s 7 -d -1 -p cbr -e 512 -c 2 -a 0 -i 37 -k AGT
h -t 15.236880379 -s 7 -d -1 -p cbr -e 512 -c 2 -a 0 -i 37 -k AGT
+ -t 15.236880379 -s 7 -d 11 -p cbr -e 532 -c 2 -a 0 -i 37 -k RTR 
- -t 15.236880379 -s 7 -d 11 -p cbr -e 532 -c 2 -a 0 -i 37 -k RTR
h -t 15.236880379 -s 7 -d 11 -p cbr -e 532 -c 2 -a 0 -i 37 -k RTR
+ -t 15.240390739 -s 13 -d 18 -p cbr -e 556 -c 2 -a 0 -i 34 -k RTR 
- -t 15.240390739 -s 13 -d 18 -p cbr -e 556 -c 2 -a 0 -i 34 -k RTR
h -t 15.240390739 -s 13 -d 18 -p cbr -e 556 -c 2 -a 0 -i 34 -k RTR
r -t 15.246368153 -s 18 -d 18 -p cbr -e 512 -c 2 -a 0 -i 0 -k AGT
+ -t 15.250226083 -s 3 -d -1 -p cbr -e 512 -c 2 -a 0 -i 38 -k AGT 
- -t 15.250226083 -s 3 -d -1 -p cbr -e 512 -c 2 -a 0 -i 38 -k AGT
h -t 15.250226083 -s 3 -d -1 -p cbr -e 512 -c 2 -a 0 -i 38 -k AGT
+ -t 15.250226083 -s 3 -d 9 -p cbr -e 532 -c 2 -a 0 -i 38 -k RTR 
- -t 15.250226083 -s 3 -d 9 -p cbr -e 532 -c 2 -a 0 -i 38 -k RTR
h -t 15.250226083 -s 3 -d 9 -p cbr -e 532 -c 2 -a 0 -i 38 -k RTR
+ -t 15.251239843 -s 6 -d 3 -p DSR -e 64 -c 2 -a 0 -i 29 -k RTR 
- -t 15.251239843 -s 6 -d 3 -p DSR -e 64 -c 2 -a 0 -i 29 -k RTR
h -t 15.251239843 -s 6 -d 3 -p DSR -e 64 -c 2 -a 0 -i 29 -k RTR
r -t 15.258312200 -s 18 -d 18 -p cbr -e 512 -c 2 -a 0 -i 34 -k AGT
+ -t 15.264643638 -s 13 -d 18 -p cbr -e 556 -c 2 -a 0 -i 32 -k RTR 
- -t 15.264643638 -s 13 -d 18 -p cbr -e 556 -c 2 -a 0 -i 32 -k RTR
h -t 15.264643638 -s 13 -d 18 -p cbr -e 556 -c 2 -a 0 -i 32 -k RTR
r -t 15.270549052 -s 18 -d 18 -p cbr -e 512 -c 2 -a 0 -i 32 -k AGT
+ -t 15.278805333 -s 9 -d 13 -p cbr -e 532 -c 2 -a 0 -i 38 -k RTR 
- -t 15.278805333 -s 9 -d 13 -p cbr -e 532 -c 2 -a 0 -i 38 -k RTR
h -t 15.278805333 -s 9 -d 13 -p cbr -e 532 -c 2 -a 0 -i 38 -k RTR
+ -t 15.284759569 -s 13 -d 18 -p cbr -e 532 -c 2 -a 0 -i 38 -k RTR 
- -t 15.284759569 -s 13 -d 18 -p cbr -e 532 -c 2 -a 0 -i 38 -k RTR
h -t 15.284759569 -s 13 -d 18 -p cbr -e 532 -c 2 -a 0 -i 38 -k RTR
r -t 15.290692983 -s 18 -d 18 -p cbr -e 512 -c 2 -a 0 -i 38 -k AGT
+ -t 15.297676352 -s 6 -d 0 -p DSR -e 68 -c 2 -a 0 -i 17 -k RTR 
- -t 15.297676352 -s 6 -d 0 -p DSR -e 68 -c 2 -a 0 -i 17 -k RTR
h -t 15.297676352 -s 6 -d 0 -p DSR -e 68 -c 2 -a 0 -i 17 -k RTR
+ -t 15.305804352 -s 6 -d 21 -p cbr -e 556 -c 2 -a 0 -i 36 -k RTR 
- -t 15.305804352 -s 6 -d 21 -p cbr -e 556 -c 2 -a 0 -i 36 -k RTR
h -t 15.305804352 -s 6 -d 21 -p cbr -e 556 -c 2 -a 0 -i 36 -k RTR
+ -t 15.306987570 -s 3 -d -1 -p cbr -e 512 -c 2 -a 0 -i 39 -k AGT 
- -t 15.306987570 -s 3 -d -1 -p cbr -e 512 -c 2 -a 0 -i 39 -k AGT
h -t 15.306987570 -s 3 -d -1 -p cbr -e 512 -c 2 -a 0 -i 39 -k AGT
+ -t 15.306987570 -s 3 -d 9 -p cbr -e 532 -c 2 -a 0 -i 39 -k RTR 
- -t 15.306987570 -s 3 -d 9 -p cbr -e 532 -c 2 -a 0 -i 39 -k RTR
h -t 15.306987570 -s 3 -d 9 -p cbr -e 532 -c 2 -a 0 -i 39 -k RTR
+ -t 15.311850588 -s 21 -d 18 -p cbr -e 556 -c 2 -a 0 -i 36 -k RTR 
- -t 15.311850588 -s 21 -d 18 -p cbr -e 556 -c 2 -a 0 -i 36 -k RTR
h -t 15.311850588 -s 21 -d 18 -p cbr -e 556 -c 2 -a 0 -i 36 -k RTR
+ -t 15.320051569 -s 9 -d 13 -p cbr -e 532 -c 2 -a 0 -i 39 -k RTR 
- -t 15.320051569 -s 9 -d 13 -p cbr -e 532 -c 2 -a 0 -i 39 -k RTR
h -t 15.320051569 -s 9 -d 13 -p cbr -e 532 -c 2 -a 0 -i 39 -k RTR
+ -t 15.322544674 -s 0 -d -1 -p cbr -e 512 -c 2 -a 0 -i 40 -k AGT 
- -t 15.322544674 -s 0 -d -1 -p cbr -e 512 -c 2 -a 0 -i 40 -k AGT
h -t 15.322544674 -s 0 -d -1 -p cbr -e 512 -c 2 -a 0 -i 40 -k AGT
+ -t 15.322544674 -s 0 -d 6 -p cbr -e 556 -c 2 -a 0 -i 40 -k RTR 
- -t 15.322544674 -s 0 -d 6 -p cbr -e 556 -c 2 -a 0 -i 40 -k RTR
h -t 15.322544674 -s 0 -d 6 -p cbr -e 556 -c 2 -a 0 -i 40 -k RTR
+ -t 15.328102787 -s 13 -d 18 -p cbr -e 532 -c 2 -a 0 -i 39 -k RTR 
- -t 15.328102787 -s 13 -d 18 -p cbr -e 532 -c 2 -a 0 -i 39 -k RTR
h -t 15.328102787 -s 13 -d 18 -p cbr -e 532 -c 2 -a 0 -i 39 -k RTR
r -t 15.334029356 -s 18 -d 18 -p cbr -e 512 -c 2 -a 0 -i 36 -k AGT
r -t 15.339903242 -s 18 -d 18 -p cbr -e 512 -c 2 -a 0 -i 39 -k AGT
+ -t 15.346080261 -s 6 -d 21 -p cbr -e 556 -c 2 -a 0 -i 40 -k RTR 
- -t 15.346080261 -s 6 -d 21 -p cbr -e 556 -c 2 -a 0 -i 40 -k RTR
h -t 15.346080261 -s 6 -d 21 -p cbr -e 556 -c 2 -a 0 -i 40 -k RTR
+ -t 15.352146497 -s 21 -d 18 -p cbr -e 556 -c 2 -a 0 -i 40 -k RTR 
- -t 15.352146497 -s 21 -d 18 -p cbr -e 556 -c 2 -a 0 -i 40 -k RTR
h -t 15.352146497 -s 21 -d 18 -p cbr -e 556 -c 2 -a 0 -i 40 -k RTR
r -t 15.358212733 -s 18 -d 18 -p cbr -e 512 -c 2 -a 0 -i 40 -k AGT
r -t 15.366607005 -s 11 -d 11 -p cbr -e 512 -c 2 -a 0 -i 35 -k AGT
+ -t 15.369628110 -s 7 -d -1 -p cbr -e 512 -c 2 -a 0 -i 41 -k AGT 
- -t 15.369628110 -s 7 -d -1 -p cbr -e 512 -c 2 -a 0 -i 41 -k AGT
h -t 15.369628110 -s 7 -d -1 -p cbr -e 512 -c 2 -a 0 -i 41 -k AGT
+ -t 15.369628110 -s 7 -d 11 -p cbr -e 532 -c 2 -a 0 -i 41 -k RTR 
- -t 15.369628110 -s 7 -d 11 -p cbr -e 532 -c 2 -a 0 -i 41 -k RTR
h -t 15.369628110 -s 7 -d 11 -p cbr -e 532 -c 2 -a 0 -i 41 -k RTR
r -t 15.372421986 -s 11 -d 11 -p cbr -e 512 -c 2 -a 0 -i 37 -k AGT
r -t 15.378456968 -s 11 -d 11 -p cbr -e 512 -c 2 -a 0 -i 41 -k AGT
+ -t 15.385893165 -s 13 -d 9 -p DSR -e 76 -c 2 -a 0 -i 16 -k RTR 
- -t 15.385893165 -s 13 -d 9 -p DSR -e 76 -c 2 -a 0 -i 16 -k RTR
h -t 15.385893165 -s 13 -d 9 -p DSR -e 76 -c 2 -a 0 -i 16 -k RTR
+ -t 15.387963832 -s 8 -d 7 -p DSR -e 64 -c 2 -a 0 -i 31 -k RTR 
- -t 15.387963832 -s 8 -d 7 -p DSR -e 64 -c 2 -a 0 -i 31 -k RTR
h -t 15.387963832 -s 8 -d 7 -p DSR -e 64 -c 2 -a 0 -i 31 -k RTR
+ -t 15.390173832 -s 7 -d 3 -p DSR -e 64 -c 2 -a 0 -i 31 -k RTR 
- -t 15.390173832 -s 7 -d 3 -p DSR -e 64 -c 2 -a 0 -i 31 -k RTR
h -t 15.390173832 -s 7 -d 3 -p DSR -e 64 -c 2 -a 0 -i 31 -k RTR
+ -t 15.392570344 -s 9 -d 6 -p DSR -e 76 -c 2 -a 0 -i 16 -k RTR 
- -t 15.392570344 -s 9 -d 6 -p DSR -e 76 -c 2 -a 0 -i 16 -k RTR
h -t 15.392570344 -s 9 -d 6 -p DSR -e 76 -c 2 -a 0 -i 16 -k RTR
+ -t 15.396866992 -s 6 -d 0 -p DSR -e 76 -c 2 -a 0 -i 16 -k RTR 
- -t 15.396866992 -s 6 -d 0 -p DSR -e 76 -c 2 -a 0 -i 16 -k RTR
h -t 15.396866992 -s 6 -d 0 -p DSR -e 76 -c 2 -a 0 -i 16 -k RTR
+ -t 15.406924460 -s 0 -d -1 -p cbr -e 512 -c 2 -a 0 -i 42 -k AGT 
- -t 15.406924460 -s 0 -d -1 -p cbr -e 512 -c 2 -a 0 -i 42 -k AGT
h -t 15.406924460 -s 0 -d -1 -p cbr -e 512 -c 2 -a 0 -i 42 -k AGT
+ -t 15.406924460 -s 0 -d 6 -p cbr -e 532 -c 2 -a 0 -i 42 -k RTR 
- -t 15.406924460 -s 0 -d 6 -p cbr -e 532 -c 2 -a 0 -i 42 -k RTR
h -t 15.406924460 -s 0 -d 6 -p cbr -e 532 -c 2 -a 0 -i 42 -k RTR
+ -t 15.408190228 -s 13 -d 9 -p DSR -e 76 -c 2 -a 0 -i 18 -k RTR 
- -t 15.408190228 -s 13 -d 9 -p DSR -e 76 -c 2 -a 0 -i 18 -k RTR
h -t 15.408190228 -s 13 -d 9 -p DSR -e 76 -c 2 -a 0 -i 18 -k RTR
+ -t 15.410396464 -s 9 -d 6 -p DSR -e 76 -c 2 -a 0 -i 18 -k RTR 
- -t 15.410396464 -s 9 -d 6 -p DSR -e 76 -c 2 -a 0 -i 18 -k RTR
h -t 15.410396464 -s 9 -d 6 -p DSR -e 76 -c 2 -a 0 -i 18 -k RTR
+ -t 15.410656315 -s 3 -d -1 -p cbr -e 512 -c 2 -a 0 -i 43 -k AGT 
- -t 15.410656315 -s 3 -d -1 -p cbr -e 512 -c 2 -a 0 -i 43 -k AGT