n -t * -s 0  -x 100 -y 200 -Z 0 -z 30  -v circle -c black
n -t * -s 1  -x 200 -y 200 -Z 0 -z 30  -v circle -c black
n -t * -s 2  -x 300 -y 200 -Z 0 -z 30  -v circle -c black
n -t * -s 3  -x 400 -y 200 -Z 0 -z 30  -v circle -c black
n -t * -s 4  -x 500 -y 200 -Z 0 -z 30  -v circle -c black
n -t * -s 5  -x 100 -y 300 -Z 0 -z 30  -v circle -c black
n -t * -s 6  -x 200 -y 300 -Z 0 -z 30  -v circle -c black
n -t * -s 7  -x 300 -y 300 -Z 0 -z 30  -v circle -c black
n -t * -s 8  -x 400 -y 300 -Z 0 -z 30  -v circle -c black
n -t * -s 9  -x 500 -y 300 -Z 0 -z 30  -v circle -c black
n -t * -s 10  -x 100 -y 400 -Z 0 -z 30  -v circle -c black
n -t * -s 11  -x 200 -y 400 -Z 0 -z 30  -v circle -c black
n -t * -s 12  -x 300 -y 400 -Z 0 -z 30  -v circle -c black
n -t * -s 13  -x 400 -y 400 -Z 0 -z 30  -v circle -c black
n -t * -s 14  -x 500 -y 400 -Z 0 -z 30  -v circle -c black
n -t * -s 15  -x 100 -y 500 -Z 0 -z 30  -v circle -c black
n -t * -s 16  -x 200 -y 500 -Z 0 -z 30  -v circle -c black
n -t * -s 17  -x 300 -y 500 -Z 0 -z 30  -v circle -c black
n -t * -s 18  -x 400 -y 500 -Z 0 -z 30  -v circle -c black
n -t * -s 19  -x 500 -y 500 -Z 0 -z 30  -v circle -c black
V -t * -v 1.0a5 -a 0
W -t * -x 500 -y 500
A -t * -n 1 -p 0 -o 0xffffffff -c 31 -a 1
A -t * -h 1 -m 2147483647 -s 0
+ -t 15.000000000 -s 0 -d -1 -p cbr -e 512 -c 2 -a 0 -i 0 -k AGT 
- -t 15.000000000 -s 0 -d -1 -p cbr -e 512 -c 2 -a 0 -i 0 -k AGT
h -t 15.000000000 -s 0 -d -1 -p cbr -e 512 -c 2 -a 0 -i 0 -k AGT
+ -t 15.000000000 -s 3 -d -1 -p cbr -e 512 -c 2 -a 0 -i 2 -k AGT 
- -t 15.000000000 -s 3 -d -1 -p cbr -e 512 -c 2 -a 0 -i 2 -k AGT
h -t 15.000000000 -s 3 -d -1 -p cbr -e 512 -c 2 -a 0 -i 2 -k AGT
+ -t 15.000000000 -s 7 -d -1 -p cbr -e 512 -c 2 -a 0 -i 4 -k AGT 
- -t 15.000000000 -s 7 -d -1 -p cbr -e 512 -c 2 -a 0 -i 4 -k AGT
h -t 15.000000000 -s 7 -d -1 -p cbr -e 512 -c 2 -a 0 -i 4 -k AGT
+ -t 15.002120514 -s 3 -d -1 -p DSR -e 32 -c 2 -a 0 -i 3 -k RTR 
- -t 15.002120514 -s 3 -d -1 -p DSR -e 32 -c 2 -a 0 -i 3 -k RTR
h -t 15.002120514 -s 3 -d -1 -p DSR -e 32 -c 2 -a 0 -i 3 -k RTR
+ -t 15.004507296 -s 7 -d -1 -p DSR -e 32 -c 2 -a 0 -i 5 -k RTR 
- -t 15.004507296 -s 7 -d -1 -p DSR -e 32 -c 2 -a 0 -i 5 -k RTR
h -t 15.004507296 -s 7 -d -1 -p DSR -e 32 -c 2 -a 0 -i 5 -k RTR
+ -t 15.009488615 -s 0 -d -1 -p DSR -e 32 -c 2 -a 0 -i 1 -k RTR 
- -t 15.009488615 -s 0 -d -1 -p DSR -e 32 -c 2 -a 0 -i 1 -k RTR
h -t 15.009488615 -s 0 -d -1 -p DSR -e 32 -c 2 -a 0 -i 1 -k RTR
+ -t 15.012009668 -s 11 -d 7 -p DSR -e 44 -c 2 -a 0 -i 6 -k RTR 
- -t 15.012009668 -s 11 -d 7 -p DSR -e 44 -c 2 -a 0 -i 6 -k RTR
h -t 15.012009668 -s 11 -d 7 -p DSR -e 44 -c 2 -a 0 -i 6 -k RTR
+ -t 15.013995082 -s 7 -d 11 -p cbr -e 548 -c 2 -a 0 -i 4 -k RTR 
- -t 15.013995082 -s 7 -d 11 -p cbr -e 548 -c 2 -a 0 -i 4 -k RTR
h -t 15.013995082 -s 7 -d 11 -p cbr -e 548 -c 2 -a 0 -i 4 -k RTR
r -t 15.020056497 -s 11 -d 11 -p cbr -e 512 -c 2 -a 0 -i 4 -k AGT
+ -t 15.039992650 -s 3 -d -1 -p DSR -e 32 -c 2 -a 0 -i 9 -k RTR 
- -t 15.039992650 -s 3 -d -1 -p DSR -e 32 -c 2 -a 0 -i 9 -k RTR
h -t 15.039992650 -s 3 -d -1 -p DSR -e 32 -c 2 -a 0 -i 9 -k RTR
+ -t 15.041488348 -s 7 -d -1 -p DSR -e 48 -c 2 -a 0 -i 9 -k RTR 
- -t 15.041488348 -s 7 -d -1 -p DSR -e 48 -c 2 -a 0 -i 9 -k RTR
h -t 15.041488348 -s 7 -d -1 -p DSR -e 48 -c 2 -a 0 -i 9 -k RTR
+ -t 15.042171355 -s 14 -d -1 -p DSR -e 48 -c 2 -a 0 -i 9 -k RTR 
- -t 15.042171355 -s 14 -d -1 -p DSR -e 48 -c 2 -a 0 -i 9 -k RTR
h -t 15.042171355 -s 14 -d -1 -p DSR -e 48 -c 2 -a 0 -i 9 -k RTR
+ -t 15.042407936 -s 13 -d -1 -p DSR -e 48 -c 2 -a 0 -i 9 -k RTR 
- -t 15.042407936 -s 13 -d -1 -p DSR -e 48 -c 2 -a 0 -i 9 -k RTR
h -t 15.042407936 -s 13 -d -1 -p DSR -e 48 -c 2 -a 0 -i 9 -k RTR
+ -t 15.045202633 -s 1 -d -1 -p DSR -e 48 -c 2 -a 0 -i 9 -k RTR 
- -t 15.045202633 -s 1 -d -1 -p DSR -e 48 -c 2 -a 0 -i 9 -k RTR
h -t 15.045202633 -s 1 -d -1 -p DSR -e 48 -c 2 -a 0 -i 9 -k RTR
+ -t 15.045411149 -s 0 -d -1 -p DSR -e 32 -c 2 -a 0 -i 8 -k RTR 
- -t 15.045411149 -s 0 -d -1 -p DSR -e 32 -c 2 -a 0 -i 8 -k RTR
h -t 15.045411149 -s 0 -d -1 -p DSR -e 32 -c 2 -a 0 -i 8 -k RTR
+ -t 15.045593292 -s 4 -d -1 -p DSR -e 48 -c 2 -a 0 -i 9 -k RTR 
- -t 15.045593292 -s 4 -d -1 -p DSR -e 48 -c 2 -a 0 -i 9 -k RTR
h -t 15.045593292 -s 4 -d -1 -p DSR -e 48 -c 2 -a 0 -i 9 -k RTR
+ -t 15.046123220 -s 9 -d -1 -p DSR -e 48 -c 2 -a 0 -i 9 -k RTR 
- -t 15.046123220 -s 9 -d -1 -p DSR -e 48 -c 2 -a 0 -i 9 -k RTR
h -t 15.046123220 -s 9 -d -1 -p DSR -e 48 -c 2 -a 0 -i 9 -k RTR
+ -t 15.046757798 -s 18 -d 7 -p DSR -e 52 -c 2 -a 0 -i 10 -k RTR 
- -t 15.046757798 -s 18 -d 7 -p DSR -e 52 -c 2 -a 0 -i 10 -k RTR
h -t 15.046757798 -s 18 -d 7 -p DSR -e 52 -c 2 -a 0 -i 10 -k RTR
+ -t 15.047556123 -s 5 -d -1 -p DSR -e 48 -c 2 -a 0 -i 8 -k RTR 
- -t 15.047556123 -s 5 -d -1 -p DSR -e 48 -c 2 -a 0 -i 8 -k RTR
h -t 15.047556123 -s 5 -d -1 -p DSR -e 48 -c 2 -a 0 -i 8 -k RTR
+ -t 15.048146696 -s 0 -d -1 -p DSR -e 68 -c 2 -a 0 -i 9 -k RTR 
- -t 15.048146696 -s 0 -d -1 -p DSR -e 68 -c 2 -a 0 -i 9 -k RTR
h -t 15.048146696 -s 0 -d -1 -p DSR -e 68 -c 2 -a 0 -i 9 -k RTR
+ -t 15.048490117 -s 10 -d -1 -p DSR -e 68 -c 2 -a 0 -i 9 -k RTR 
- -t 15.048490117 -s 10 -d -1 -p DSR -e 68 -c 2 -a 0 -i 9 -k RTR
h -t 15.048490117 -s 10 -d -1 -p DSR -e 68 -c 2 -a 0 -i 9 -k RTR
+ -t 15.048540978 -s 6 -d -1 -p DSR -e 48 -c 2 -a 0 -i 9 -k RTR 
- -t 15.048540978 -s 6 -d -1 -p DSR -e 48 -c 2 -a 0 -i 9 -k RTR
h -t 15.048540978 -s 6 -d -1 -p DSR -e 48 -c 2 -a 0 -i 9 -k RTR
+ -t 15.048784891 -s 2 -d -1 -p DSR -e 48 -c 2 -a 0 -i 8 -k RTR 
- -t 15.048784891 -s 2 -d -1 -p DSR -e 48 -c 2 -a 0 -i 8 -k RTR
h -t 15.048784891 -s 2 -d -1 -p DSR -e 48 -c 2 -a 0 -i 8 -k RTR
+ -t 15.049017581 -s 5 -d -1 -p DSR -e 68 -c 2 -a 0 -i 9 -k RTR 
- -t 15.049017581 -s 5 -d -1 -p DSR -e 68 -c 2 -a 0 -i 9 -k RTR
h -t 15.049017581 -s 5 -d -1 -p DSR -e 68 -c 2 -a 0 -i 9 -k RTR
+ -t 15.049041404 -s 11 -d -1 -p DSR -e 48 -c 2 -a 0 -i 8 -k RTR 
- -t 15.049041404 -s 11 -d -1 -p DSR -e 48 -c 2 -a 0 -i 8 -k RTR
h -t 15.049041404 -s 11 -d -1 -p DSR -e 48 -c 2 -a 0 -i 8 -k RTR
+ -t 15.049418403 -s 19 -d -1 -p DSR -e 68 -c 2 -a 0 -i 9 -k RTR 
- -t 15.049418403 -s 19 -d -1 -p DSR -e 68 -c 2 -a 0 -i 9 -k RTR
h -t 15.049418403 -s 19 -d -1 -p DSR -e 68 -c 2 -a 0 -i 9 -k RTR
+ -t 15.049516015 -s 10 -d -1 -p DSR -e 48 -c 2 -a 0 -i 8 -k RTR 
- -t 15.049516015 -s 10 -d -1 -p DSR -e 48 -c 2 -a 0 -i 8 -k RTR
h -t 15.049516015 -s 10 -d -1 -p DSR -e 48 -c 2 -a 0 -i 8 -k RTR
+ -t 15.049608646 -s 2 -d -1 -p DSR -e 48 -c 2 -a 0 -i 9 -k RTR 
- -t 15.049608646 -s 2 -d -1 -p DSR -e 48 -c 2 -a 0 -i 9 -k RTR
h -t 15.049608646 -s 2 -d -1 -p DSR -e 48 -c 2 -a 0 -i 9 -k RTR
+ -t 15.049621138 -s 11 -d -1 -p DSR -e 68 -c 2 -a 0 -i 9 -k RTR 
- -t 15.049621138 -s 11 -d -1 -p DSR -e 68 -c 2 -a 0 -i 9 -k RTR
h -t 15.049621138 -s 11 -d -1 -p DSR -e 68 -c 2 -a 0 -i 9 -k RTR
+ -t 15.049719986 -s 18 -d 13 -p DSR -e 52 -c 2 -a 0 -i 12 -k RTR 
- -t 15.049719986 -s 18 -d 13 -p DSR -e 52 -c 2 -a 0 -i 12 -k RTR
h -t 15.049719986 -s 18 -d 13 -p DSR -e 52 -c 2 -a 0 -i 12 -k RTR
+ -t 15.050190110 -s 17 -d -1 -p DSR -e 68 -c 2 -a 0 -i 9 -k RTR 
- -t 15.050190110 -s 17 -d -1 -p DSR -e 68 -c 2 -a 0 -i 9 -k RTR
h -t 15.050190110 -s 17 -d -1 -p DSR -e 68 -c 2 -a 0 -i 9 -k RTR
+ -t 15.050944271 -s 8 -d -1 -p DSR -e 48 -c 2 -a 0 -i 9 -k RTR 
- -t 15.050944271 -s 8 -d -1 -p DSR -e 48 -c 2 -a 0 -i 9 -k RTR
h -t 15.050944271 -s 8 -d -1 -p DSR -e 48 -c 2 -a 0 -i 9 -k RTR
+ -t 15.051313811 -s 12 -d -1 -p DSR -e 48 -c 2 -a 0 -i 9 -k RTR 
- -t 15.051313811 -s 12 -d -1 -p DSR -e 48 -c 2 -a 0 -i 9 -k RTR
h -t 15.051313811 -s 12 -d -1 -p DSR -e 48 -c 2 -a 0 -i 9 -k RTR
+ -t 15.051524428 -s 16 -d -1 -p DSR -e 68 -c 2 -a 0 -i 9 -k RTR 
- -t 15.051524428 -s 16 -d -1 -p DSR -e 68 -c 2 -a 0 -i 9 -k RTR
h -t 15.051524428 -s 16 -d -1 -p DSR -e 68 -c 2 -a 0 -i 9 -k RTR
+ -t 15.052067786 -s 0 -d -1 -p cbr -e 512 -c 2 -a 0 -i 14 -k AGT 
- -t 15.052067786 -s 0 -d -1 -p cbr -e 512 -c 2 -a 0 -i 14 -k AGT
h -t 15.052067786 -s 0 -d -1 -p cbr -e 512 -c 2 -a 0 -i 14 -k AGT
+ -t 15.052429991 -s 18 -d 14 -p DSR -e 52 -c 2 -a 0 -i 11 -k RTR 
- -t 15.052429991 -s 18 -d 14 -p DSR -e 52 -c 2 -a 0 -i 11 -k RTR
h -t 15.052429991 -s 18 -d 14 -p DSR -e 52 -c 2 -a 0 -i 11 -k RTR
+ -t 15.052974012 -s 3 -d -1 -p DSR -e 68 -c 2 -a 0 -i 8 -k RTR 
- -t 15.052974012 -s 3 -d -1 -p DSR -e 68 -c 2 -a 0 -i 8 -k RTR
h -t 15.052974012 -s 3 -d -1 -p DSR -e 68 -c 2 -a 0 -i 8 -k RTR
+ -t 15.053619068 -s 7 -d -1 -p DSR -e 48 -c 2 -a 0 -i 8 -k RTR 
- -t 15.053619068 -s 7 -d -1 -p DSR -e 48 -c 2 -a 0 -i 8 -k RTR
h -t 15.053619068 -s 7 -d -1 -p DSR -e 48 -c 2 -a 0 -i 8 -k RTR
+ -t 15.054215313 -s 12 -d -1 -p DSR -e 68 -c 2 -a 0 -i 8 -k RTR 
- -t 15.054215313 -s 12 -d -1 -p DSR -e 68 -c 2 -a 0 -i 8 -k RTR
h -t 15.054215313 -s 12 -d -1 -p DSR -e 68 -c 2 -a 0 -i 8 -k RTR
+ -t 15.054373925 -s 15 -d -1 -p DSR -e 92 -c 2 -a 0 -i 9 -k RTR 
- -t 15.054373925 -s 15 -d -1 -p DSR -e 92 -c 2 -a 0 -i 9 -k RTR
h -t 15.054373925 -s 15 -d -1 -p DSR -e 92 -c 2 -a 0 -i 9 -k RTR
+ -t 15.054834558 -s 1 -d -1 -p DSR -e 48 -c 2 -a 0 -i 8 -k RTR 
- -t 15.054834558 -s 1 -d -1 -p DSR -e 48 -c 2 -a 0 -i 8 -k RTR
h -t 15.054834558 -s 1 -d -1 -p DSR -e 48 -c 2 -a 0 -i 8 -k RTR
+ -t 15.055471838 -s 18 -d 9 -p DSR -e 52 -c 2 -a 0 -i 13 -k RTR 
- -t 15.055471838 -s 18 -d 9 -p DSR -e 52 -c 2 -a 0 -i 13 -k RTR
h -t 15.055471838 -s 18 -d 9 -p DSR -e 52 -c 2 -a 0 -i 13 -k RTR
+ -t 15.056006108 -s 17 -d -1 -p DSR -e 68 -c 2 -a 0 -i 8 -k RTR 
- -t 15.056006108 -s 17 -d -1 -p DSR -e 68 -c 2 -a 0 -i 8 -k RTR
h -t 15.056006108 -s 17 -d -1 -p DSR -e 68 -c 2 -a 0 -i 8 -k RTR
+ -t 15.056549518 -s 9 -d -1 -p DSR -e 68 -c 2 -a 0 -i 8 -k RTR 
- -t 15.056549518 -s 9 -d -1 -p DSR -e 68 -c 2 -a 0 -i 8 -k RTR
h -t 15.056549518 -s 9 -d -1 -p DSR -e 68 -c 2 -a 0 -i 8 -k RTR
+ -t 15.056593465 -s 6 -d -1 -p DSR -e 48 -c 2 -a 0 -i 8 -k RTR 
- -t 15.056593465 -s 6 -d -1 -p DSR -e 48 -c 2 -a 0 -i 8 -k RTR
h -t 15.056593465 -s 6 -d -1 -p DSR -e 48 -c 2 -a 0 -i 8 -k RTR
+ -t 15.058093985 -s 18 -d 12 -p DSR -e 52 -c 2 -a 0 -i 18 -k RTR 
- -t 15.058093985 -s 18 -d 12 -p DSR -e 52 -c 2 -a 0 -i 18 -k RTR
h -t 15.058093985 -s 18 -d 12 -p DSR -e 52 -c 2 -a 0 -i 18 -k RTR
+ -t 15.058566085 -s 18 -d 7 -p DSR -e 52 -c 2 -a 0 -i 16 -k RTR 
- -t 15.058566085 -s 18 -d 7 -p DSR -e 52 -c 2 -a 0 -i 16 -k RTR
h -t 15.058566085 -s 18 -d 7 -p DSR -e 52 -c 2 -a 0 -i 16 -k RTR
+ -t 15.059091247 -s 7 -d 3 -p DSR -e 52 -c 2 -a 0 -i 10 -k RTR 
- -t 15.059091247 -s 7 -d 3 -p DSR -e 52 -c 2 -a 0 -i 10 -k RTR
h -t 15.059091247 -s 7 -d 3 -p DSR -e 52 -c 2 -a 0 -i 10 -k RTR
+ -t 15.059313365 -s 3 -d -1 -p cbr -e 512 -c 2 -a 0 -i 19 -k AGT 
- -t 15.059313365 -s 3 -d -1 -p cbr -e 512 -c 2 -a 0 -i 19 -k AGT
h -t 15.059313365 -s 3 -d -1 -p cbr -e 512 -c 2 -a 0 -i 19 -k AGT
+ -t 15.060436580 -s 19 -d 9 -p DSR -e 64 -c 2 -a 0 -i 21 -k RTR 
- -t 15.060436580 -s 19 -d 9 -p DSR -e 64 -c 2 -a 0 -i 21 -k RTR
h -t 15.060436580 -s 19 -d 9 -p DSR -e 64 -c 2 -a 0 -i 21 -k RTR
+ -t 15.060636180 -s 15 -d -1 -p DSR -e 68 -c 2 -a 0 -i 8 -k RTR 
- -t 15.060636180 -s 15 -d -1 -p DSR -e 68 -c 2 -a 0 -i 8 -k RTR
h -t 15.060636180 -s 15 -d -1 -p DSR -e 68 -c 2 -a 0 -i 8 -k RTR
+ -t 15.061205340 -s 4 -d -1 -p DSR -e 68 -c 2 -a 0 -i 8 -k RTR 
- -t 15.061205340 -s 4 -d -1 -p DSR -e 68 -c 2 -a 0 -i 8 -k RTR
h -t 15.061205340 -s 4 -d -1 -p DSR -e 68 -c 2 -a 0 -i 8 -k RTR
+ -t 15.061363754 -s 18 -d 11 -p DSR -e 52 -c 2 -a 0 -i 17 -k RTR 
- -t 15.061363754 -s 18 -d 11 -p DSR -e 52 -c 2 -a 0 -i 17 -k RTR
h -t 15.061363754 -s 18 -d 11 -p DSR -e 52 -c 2 -a 0 -i 17 -k RTR
+ -t 15.061382916 -s 16 -d -1 -p DSR -e 68 -c 2 -a 0 -i 8 -k RTR 
- -t 15.061382916 -s 16 -d -1 -p DSR -e 68 -c 2 -a 0 -i 8 -k RTR
h -t 15.061382916 -s 16 -d -1 -p DSR -e 68 -c 2 -a 0 -i 8 -k RTR
+ -t 15.062034263 -s 8 -d -1 -p DSR -e 68 -c 2 -a 0 -i 8 -k RTR 
- -t 15.062034263 -s 8 -d -1 -p DSR -e 68 -c 2 -a 0 -i 8 -k RTR
h -t 15.062034263 -s 8 -d -1 -p DSR -e 68 -c 2 -a 0 -i 8 -k RTR
+ -t 15.062405821 -s 13 -d -1 -p DSR -e 68 -c 2 -a 0 -i 8 -k RTR 
- -t 15.062405821 -s 13 -d -1 -p DSR -e 68 -c 2 -a 0 -i 8 -k RTR
h -t 15.062405821 -s 13 -d -1 -p DSR -e 68 -c 2 -a 0 -i 8 -k RTR
+ -t 15.064256553 -s 14 -d -1 -p DSR -e 68 -c 2 -a 0 -i 8 -k RTR 
- -t 15.064256553 -s 14 -d -1 -p DSR -e 68 -c 2 -a 0 -i 8 -k RTR
h -t 15.064256553 -s 14 -d -1 -p DSR -e 68 -c 2 -a 0 -i 8 -k RTR
+ -t 15.064862303 -s 18 -d 17 -p DSR -e 60 -c 2 -a 0 -i 25 -k RTR 
- -t 15.064862303 -s 18 -d 17 -p DSR -e 60 -c 2 -a 0 -i 25 -k RTR
h -t 15.064862303 -s 18 -d 17 -p DSR -e 60 -c 2 -a 0 -i 25 -k RTR
+ -t 15.065097153 -s 18 -d 16 -p DSR -e 60 -c 2 -a 0 -i 24 -k RTR 
- -t 15.065097153 -s 18 -d 16 -p DSR -e 60 -c 2 -a 0 -i 24 -k RTR
h -t 15.065097153 -s 18 -d 16 -p DSR -e 60 -c 2 -a 0 -i 24 -k RTR
+ -t 15.066297544 -s 3 -d 7 -p cbr -e 552 -c 2 -a 0 -i 2 -k RTR 
- -t 15.066297544 -s 3 -d 7 -p cbr -e 552 -c 2 -a 0 -i 2 -k RTR
h -t 15.066297544 -s 3 -d 7 -p cbr -e 552 -c 2 -a 0 -i 2 -k RTR
+ -t 15.069060023 -s 18 -d 9 -p DSR -e 60 -c 2 -a 0 -i 22 -k RTR 
- -t 15.069060023 -s 18 -d 9 -p DSR -e 60 -c 2 -a 0 -i 22 -k RTR
h -t 15.069060023 -s 18 -d 9 -p DSR -e 60 -c 2 -a 0 -i 22 -k RTR
+ -t 15.070461632 -s 18 -d 12 -p DSR -e 60 -c 2 -a 0 -i 23 -k RTR 
- -t 15.070461632 -s 18 -d 12 -p DSR -e 60 -c 2 -a 0 -i 23 -k RTR
h -t 15.070461632 -s 18 -d 12 -p DSR -e 60 -c 2 -a 0 -i 23 -k RTR
+ -t 15.072390173 -s 9 -d 2 -p DSR -e 64 -c 2 -a 0 -i 21 -k RTR 
- -t 15.072390173 -s 9 -d 2 -p DSR -e 64 -c 2 -a 0 -i 21 -k RTR
h -t 15.072390173 -s 9 -d 2 -p DSR -e 64 -c 2 -a 0 -i 21 -k RTR
+ -t 15.073496505 -s 18 -d 8 -p DSR -e 52 -c 2 -a 0 -i 28 -k RTR 
- -t 15.073496505 -s 18 -d 8 -p DSR -e 52 -c 2 -a 0 -i 28 -k RTR
h -t 15.073496505 -s 18 -d 8 -p DSR -e 52 -c 2 -a 0 -i 28 -k RTR
+ -t 15.074261489 -s 18 -d 19 -p DSR -e 60 -c 2 -a 0 -i 27 -k RTR 
- -t 15.074261489 -s 18 -d 19 -p DSR -e 60 -c 2 -a 0 -i 27 -k RTR
h -t 15.074261489 -s 18 -d 19 -p DSR -e 60 -c 2 -a 0 -i 27 -k RTR
+ -t 15.074736687 -s 18 -d 11 -p DSR -e 60 -c 2 -a 0 -i 30 -k RTR 
- -t 15.074736687 -s 18 -d 11 -p DSR -e 60 -c 2 -a 0 -i 30 -k RTR
h -t 15.074736687 -s 18 -d 11 -p DSR -e 60 -c 2 -a 0 -i 30 -k RTR
+ -t 15.075940612 -s 18 -d 14 -p DSR -e 60 -c 2 -a 0 -i 26 -k RTR 
- -t 15.075940612 -s 18 -d 14 -p DSR -e 60 -c 2 -a 0 -i 26 -k RTR
h -t 15.075940612 -s 18 -d 14 -p DSR -e 60 -c 2 -a 0 -i 26 -k RTR
+ -t 15.080158294 -s 18 -d 13 -p DSR -e 60 -c 2 -a 0 -i 29 -k RTR 
- -t 15.080158294 -s 18 -d 13 -p DSR -e 60 -c 2 -a 0 -i 29 -k RTR
h -t 15.080158294 -s 18 -d 13 -p DSR -e 60 -c 2 -a 0 -i 29 -k RTR
+ -t 15.083630868 -s 7 -d 18 -p cbr -e 552 -c 2 -a 0 -i 2 -k RTR 
- -t 15.083630868 -s 7 -d 18 -p cbr -e 552 -c 2 -a 0 -i 2 -k RTR
h -t 15.083630868 -s 7 -d 18 -p cbr -e 552 -c 2 -a 0 -i 2 -k RTR
+ -t 15.085761158 -s 18 -d 8 -p DSR -e 60 -c 2 -a 0 -i 31 -k RTR 
- -t 15.085761158 -s 18 -d 8 -p DSR -e 60 -c 2 -a 0 -i 31 -k RTR
h -t 15.085761158 -s 18 -d 8 -p DSR -e 60 -c 2 -a 0 -i 31 -k RTR
+ -t 15.086576104 -s 7 -d 0 -p DSR -e 52 -c 2 -a 0 -i 16 -k RTR 
- -t 15.086576104 -s 7 -d 0 -p DSR -e 52 -c 2 -a 0 -i 16 -k RTR
h -t 15.086576104 -s 7 -d 0 -p DSR -e 52 -c 2 -a 0 -i 16 -k RTR
+ -t 15.088587007 -s 2 -d 0 -p DSR -e 64 -c 2 -a 0 -i 21 -k RTR 
- -t 15.088587007 -s 2 -d 0 -p DSR -e 64 -c 2 -a 0 -i 21 -k RTR
h -t 15.088587007 -s 2 -d 0 -p DSR -e 64 -c 2 -a 0 -i 21 -k RTR
+ -t 15.090737007 -s 0 -d 2 -p cbr -e 560 -c 2 -a 0 -i 0 -k RTR 
- -t 15.090737007 -s 0 -d 2 -p cbr -e 560 -c 2 -a 0 -i 0 -k RTR
h -t 15.090737007 -s 0 -d 2 -p cbr -e 560 -c 2 -a 0 -i 0 -k RTR
+ -t 15.096297544 -s 3 -d 7 -p cbr -e 552 -c 2 -a 0 -i 19 -k RTR 
- -t 15.096297544 -s 3 -d 7 -p cbr -e 552 -c 2 -a 0 -i 19 -k RTR
h -t 15.096297544 -s 3 -d 7 -p cbr -e 552 -c 2 -a 0 -i 19 -k RTR
r -t 15.096831988 -s 18 -d 18 -p cbr -e 512 -c 2 -a 0 -i 2 -k AGT
+ -t 15.098849988 -s 8 -d 2 -p DSR -e 60 -c 2 -a 0 -i 31 -k RTR 
- -t 15.098849988 -s 8 -d 2 -p DSR -e 60 -c 2 -a 0 -i 31 -k RTR
h -t 15.098849988 -s 8 -d 2 -p DSR -e 60 -c 2 -a 0 -i 31 -k RTR
+ -t 15.100807655 -s 13 -d 2 -p DSR -e 60 -c 2 -a 0 -i 29 -k RTR 
- -t 15.100807655 -s 13 -d 2 -p DSR -e 60 -c 2 -a 0 -i 29 -k RTR
h -t 15.100807655 -s 13 -d 2 -p DSR -e 60 -c 2 -a 0 -i 29 -k RTR
+ -t 15.102765402 -s 2 -d 0 -p DSR -e 60 -c 2 -a 0 -i 31 -k RTR 
- -t 15.102765402 -s 2 -d 0 -p DSR -e 60 -c 2 -a 0 -i 31 -k RTR
h -t 15.102765402 -s 2 -d 0 -p DSR -e 60 -c 2 -a 0 -i 31 -k RTR
+ -t 15.108679150 -s 7 -d 18 -p cbr -e 552 -c 2 -a 0 -i 19 -k RTR 
- -t 15.108679150 -s 7 -d 18 -p cbr -e 552 -c 2 -a 0 -i 19 -k RTR
h -t 15.108679150 -s 7 -d 18 -p cbr -e 552 -c 2 -a 0 -i 19 -k RTR
+ -t 15.116152499 -s 0 -d -1 -p cbr -e 512 -c 2 -a 0 -i 35 -k AGT 
- -t 15.116152499 -s 0 -d -1 -p cbr -e 512 -c 2 -a 0 -i 35 -k AGT
h -t 15.116152499 -s 0 -d -1 -p cbr -e 512 -c 2 -a 0 -i 35 -k AGT
+ -t 15.116152499 -s 0 -d 7 -p cbr -e 552 -c 2 -a 0 -i 35 -k RTR 
- -t 15.116152499 -s 0 -d 7 -p cbr -e 552 -c 2 -a 0 -i 35 -k RTR
h -t 15.116152499 -s 0 -d 7 -p cbr -e 552 -c 2 -a 0 -i 35 -k RTR
+ -t 15.117854755 -s 2 -d 0 -p DSR -e 60 -c 2 -a 0 -i 29 -k RTR 
- -t 15.117854755 -s 2 -d 0 -p DSR -e 60 -c 2 -a 0 -i 29 -k RTR
h -t 15.117854755 -s 2 -d 0 -p DSR -e 60 -c 2 -a 0 -i 29 -k RTR
+ -t 15.119372532 -s 18 -d 17 -p DSR -e 60 -c 2 -a 0 -i 34 -k RTR 
- -t 15.119372532 -s 18 -d 17 -p DSR -e 60 -c 2 -a 0 -i 34 -k RTR
h -t 15.119372532 -s 18 -d 17 -p DSR -e 60 -c 2 -a 0 -i 34 -k RTR
+ -t 15.120737007 -s 0 -d 2 -p cbr -e 560 -c 2 -a 0 -i 14 -k RTR 
- -t 15.120737007 -s 0 -d 2 -p cbr -e 560 -c 2 -a 0 -i 14 -k RTR
h -t 15.120737007 -s 0 -d 2 -p cbr -e 560 -c 2 -a 0 -i 14 -k RTR
r -t 15.123749324 -s 18 -d 18 -p cbr -e 512 -c 2 -a 0 -i 19 -k AGT
+ -t 15.125706738 -s 14 -d 7 -p DSR -e 60 -c 2 -a 0 -i 26 -k RTR 
- -t 15.125706738 -s 14 -d 7 -p DSR -e 60 -c 2 -a 0 -i 26 -k RTR
h -t 15.125706738 -s 14 -d 7 -p DSR -e 60 -c 2 -a 0 -i 26 -k RTR
+ -t 15.127724210 -s 17 -d 7 -p DSR -e 60 -c 2 -a 0 -i 34 -k RTR 
- -t 15.127724210 -s 17 -d 7 -p DSR -e 60 -c 2 -a 0 -i 34 -k RTR
h -t 15.127724210 -s 17 -d 7 -p DSR -e 60 -c 2 -a 0 -i 34 -k RTR
+ -t 15.129722210 -s 7 -d 0 -p DSR -e 60 -c 2 -a 0 -i 34 -k RTR 
- -t 15.129722210 -s 7 -d 0 -p DSR -e 60 -c 2 -a 0 -i 34 -k RTR
h -t 15.129722210 -s 7 -d 0 -p DSR -e 60 -c 2 -a 0 -i 34 -k RTR
+ -t 15.136316010 -s 7 -d -1 -p cbr -e 512 -c 2 -a 0 -i 36 -k AGT 
- -t 15.136316010 -s 7 -d -1 -p cbr -e 512 -c 2 -a 0 -i 36 -k AGT
h -t 15.136316010 -s 7 -d -1 -p cbr -e 512 -c 2 -a 0 -i 36 -k AGT
+ -t 15.136316010 -s 7 -d 11 -p cbr -e 548 -c 2 -a 0 -i 36 -k RTR 
- -t 15.136316010 -s 7 -d 11 -p cbr -e 548 -c 2 -a 0 -i 36 -k RTR
h -t 15.136316010 -s 7 -d 11 -p cbr -e 548 -c 2 -a 0 -i 36 -k RTR
+ -t 15.137948543 -s 2 -d 9 -p cbr -e 560 -c 2 -a 0 -i 0 -k RTR 
- -t 15.137948543 -s 2 -d 9 -p cbr -e 560 -c 2 -a 0 -i 0 -k RTR
h -t 15.137948543 -s 2 -d 9 -p cbr -e 560 -c 2 -a 0 -i 0 -k RTR
+ -t 15.142772270 -s 11 -d 7 -p DSR -e 60 -c 2 -a 0 -i 30 -k RTR 
- -t 15.142772270 -s 11 -d 7 -p DSR -e 60 -c 2 -a 0 -i 30 -k RTR
h -t 15.142772270 -s 11 -d 7 -p DSR -e 60 -c 2 -a 0 -i 30 -k RTR
+ -t 15.148940815 -s 9 -d 19 -p cbr -e 560 -c 2 -a 0 -i 0 -k RTR 
- -t 15.148940815 -s 9 -d 19 -p cbr -e 560 -c 2 -a 0 -i 0 -k RTR
h -t 15.148940815 -s 9 -d 19 -p cbr -e 560 -c 2 -a 0 -i 0 -k RTR
+ -t 15.155078815 -s 19 -d 18 -p cbr -e 560 -c 2 -a 0 -i 0 -k RTR 
- -t 15.155078815 -s 19 -d 18 -p cbr -e 560 -c 2 -a 0 -i 0 -k RTR
h -t 15.155078815 -s 19 -d 18 -p cbr -e 560 -c 2 -a 0 -i 0 -k RTR
r -t 15.161775815 -s 18 -d 18 -p cbr -e 512 -c 2 -a 0 -i 0 -k AGT
+ -t 15.163854522 -s 7 -d 0 -p DSR -e 60 -c 2 -a 0 -i 26 -k RTR 
- -t 15.163854522 -s 7 -d 0 -p DSR -e 60 -c 2 -a 0 -i 26 -k RTR
h -t 15.163854522 -s 7 -d 0 -p DSR -e 60 -c 2 -a 0 -i 26 -k RTR
+ -t 15.168059427 -s 7 -d 3 -p DSR -e 60 -c 2 -a 0 -i 30 -k RTR 
- -t 15.168059427 -s 7 -d 3 -p DSR -e 60 -c 2 -a 0 -i 30 -k RTR
h -t 15.168059427 -s 7 -d 3 -p DSR -e 60 -c 2 -a 0 -i 30 -k RTR
+ -t 15.173954408 -s 7 -d 18 -p cbr -e 552 -c 2 -a 0 -i 35 -k RTR 
- -t 15.173954408 -s 7 -d 18 -p cbr -e 552 -c 2 -a 0 -i 35 -k RTR
h -t 15.173954408 -s 7 -d 18 -p cbr -e 552 -c 2 -a 0 -i 35 -k RTR
+ -t 15.176172345 -s 3 -d -1 -p cbr -e 512 -c 2 -a 0 -i 37 -k AGT 
- -t 15.176172345 -s 3 -d -1 -p cbr -e 512 -c 2 -a 0 -i 37 -k AGT
h -t 15.176172345 -s 3 -d -1 -p cbr -e 512 -c 2 -a 0 -i 37 -k AGT
+ -t 15.176172345 -s 3 -d 7 -p cbr -e 552 -c 2 -a 0 -i 37 -k RTR 
- -t 15.176172345 -s 3 -d 7 -p cbr -e 552 -c 2 -a 0 -i 37 -k RTR
h -t 15.176172345 -s 3 -d 7 -p cbr -e 552 -c 2 -a 0 -i 37 -k RTR
+ -t 15.182170645 -s 2 -d 9 -p cbr -e 560 -c 2 -a 0 -i 14 -k RTR 
- -t 15.182170645 -s 2 -d 9 -p cbr -e 560 -c 2 -a 0 -i 14 -k RTR
h -t 15.182170645 -s 2 -d 9 -p cbr -e 560 -c 2 -a 0 -i 14 -k RTR
+ -t 15.190386961 -s 9 -d 19 -p cbr -e 560 -c 2 -a 0 -i 14 -k RTR 
- -t 15.190386961 -s 9 -d 19 -p cbr -e 560 -c 2 -a 0 -i 14 -k RTR
h -t 15.190386961 -s 9 -d 19 -p cbr -e 560 -c 2 -a 0 -i 14 -k RTR
+ -t 15.196520040 -s 18 -d 9 -p DSR -e 60 -c 2 -a 0 -i 38 -k RTR 
- -t 15.196520040 -s 18 -d 9 -p DSR -e 60 -c 2 -a 0 -i 38 -k RTR
h -t 15.196520040 -s 18 -d 9 -p DSR -e 60 -c 2 -a 0 -i 38 -k RTR
+ -t 15.196544961 -s 19 -d 18 -p cbr -e 560 -c 2 -a 0 -i 14 -k RTR 
- -t 15.196544961 -s 19 -d 18 -p cbr -e 560 -c 2 -a 0 -i 14 -k RTR
h -t 15.196544961 -s 19 -d 18 -p cbr -e 560 -c 2 -a 0 -i 14 -k RTR
r -t 15.202661961 -s 18 -d 18 -p cbr -e 512 -c 2 -a 0 -i 14 -k AGT
+ -t 15.204738961 -s 19 -d 14 -p DSR -e 60 -c 2 -a 0 -i 27 -k RTR 
- -t 15.204738961 -s 19 -d 14 -p DSR -e 60 -c 2 -a 0 -i 27 -k RTR
h -t 15.204738961 -s 19 -d 14 -p DSR -e 60 -c 2 -a 0 -i 27 -k RTR
+ -t 15.206737531 -s 9 -d 2 -p DSR -e 60 -c 2 -a 0 -i 38 -k RTR 
- -t 15.206737531 -s 9 -d 2 -p DSR -e 60 -c 2 -a 0 -i 38 -k RTR
h -t 15.206737531 -s 9 -d 2 -p DSR -e 60 -c 2 -a 0 -i 38 -k RTR
r -t 15.214738593 -s 11 -d 11 -p cbr -e 512 -c 2 -a 0 -i 36 -k AGT
+ -t 15.216673339 -s 8 -d 3 -p DSR -e 52 -c 2 -a 0 -i 28 -k RTR 
- -t 15.216673339 -s 8 -d 3 -p DSR -e 52 -c 2 -a 0 -i 28 -k RTR
h -t 15.216673339 -s 8 -d 3 -p DSR -e 52 -c 2 -a 0 -i 28 -k RTR
+ -t 15.222617086 -s 7 -d 18 -p cbr -e 552 -c 2 -a 0 -i 37 -k RTR 
- -t 15.222617086 -s 7 -d 18 -p cbr -e 552 -c 2 -a 0 -i 37 -k RTR
h -t 15.222617086 -s 7 -d 18 -p cbr -e 552 -c 2 -a 0 -i 37 -k RTR
+ -t 15.224645029 -s 12 -d 5 -p DSR -e 60 -c 2 -a 0 -i 23 -k RTR 
- -t 15.224645029 -s 12 -d 5 -p DSR -e 60 -c 2 -a 0 -i 23 -k RTR
h -t 15.224645029 -s 12 -d 5 -p DSR -e 60 -c 2 -a 0 -i 23 -k RTR
+ -t 15.230684089 -s 7 -d -1 -p cbr -e 512 -c 2 -a 0 -i 39 -k AGT 
- -t 15.230684089 -s 7 -d -1 -p cbr -e 512 -c 2 -a 0 -i 39 -k AGT
h -t 15.230684089 -s 7 -d -1 -p cbr -e 512 -c 2 -a 0 -i 39 -k AGT
+ -t 15.230684089 -s 7 -d 11 -p cbr -e 548 -c 2 -a 0 -i 39 -k RTR 
- -t 15.230684089 -s 7 -d 11 -p cbr -e 548 -c 2 -a 0 -i 39 -k RTR
h -t 15.230684089 -s 7 -d 11 -p cbr -e 548 -c 2 -a 0 -i 39 -k RTR
r -t 15.232493208 -s 18 -d 18 -p cbr -e 512 -c 2 -a 0 -i 35 -k AGT
+ -t 15.233695839 -s 0 -d -1 -p cbr -e 512 -c 2 -a 0 -i 40 -k AGT 
- -t 15.233695839 -s 0 -d -1 -p cbr -e 512 -c 2 -a 0 -i 40 -k AGT
h -t 15.233695839 -s 0 -d -1 -p cbr -e 512 -c 2 -a 0 -i 40 -k AGT
+ -t 15.233695839 -s 0 -d 7 -p cbr -e 552 -c 2 -a 0 -i 40 -k RTR 
- -t 15.233695839 -s 0 -d 7 -p cbr -e 552 -c 2 -a 0 -i 40 -k RTR
h -t 15.233695839 -s 0 -d 7 -p cbr -e 552 -c 2 -a 0 -i 40 -k RTR
+ -t 15.234451915 -s 5 -d 0 -p DSR -e 60 -c 2 -a 0 -i 23 -k RTR 
- -t 15.234451915 -s 5 -d 0 -p DSR -e 60 -c 2 -a 0 -i 23 -k RTR
h -t 15.234451915 -s 5 -d 0 -p DSR -e 60 -c 2 -a 0 -i 23 -k RTR
+ -t 15.240376349 -s 7 -d 18 -p cbr -e 552 -c 2 -a 0 -i 40 -k RTR 
- -t 15.240376349 -s 7 -d 18 -p cbr -e 552 -c 2 -a 0 -i 40 -k RTR
h -t 15.240376349 -s 7 -d 18 -p cbr -e 552 -c 2 -a 0 -i 40 -k RTR
+ -t 15.242485214 -s 2 -d 0 -p DSR -e 60 -c 2 -a 0 -i 38 -k RTR 
- -t 15.242485214 -s 2 -d 0 -p DSR -e 60 -c 2 -a 0 -i 38 -k RTR
h -t 15.242485214 -s 2 -d 0 -p DSR -e 60 -c 2 -a 0 -i 38 -k RTR
r -t 15.248539783 -s 18 -d 18 -p cbr -e 512 -c 2 -a 0 -i 37 -k AGT
+ -t 15.250706981 -s 14 -d 3 -p DSR -e 60 -c 2 -a 0 -i 27 -k RTR 
- -t 15.250706981 -s 14 -d 3 -p DSR -e 60 -c 2 -a 0 -i 27 -k RTR
h -t 15.250706981 -s 14 -d 3 -p DSR -e 60 -c 2 -a 0 -i 27 -k RTR
+ -t 15.252745688 -s 9 -d 2 -p DSR -e 60 -c 2 -a 0 -i 22 -k RTR 
- -t 15.252745688 -s 9 -d 2 -p DSR -e 60 -c 2 -a 0 -i 22 -k RTR
h -t 15.252745688 -s 9 -d 2 -p DSR -e 60 -c 2 -a 0 -i 22 -k RTR
r -t 15.258607769 -s 11 -d 11 -p cbr -e 512 -c 2 -a 0 -i 39 -k AGT
+ -t 15.260566514 -s 16 -d 5 -p DSR -e 60 -c 2 -a 0 -i 24 -k RTR 
- -t 15.260566514 -s 16 -d 5 -p DSR -e 60 -c 2 -a 0 -i 24 -k RTR
h -t 15.260566514 -s 16 -d 5 -p DSR -e 60 -c 2 -a 0 -i 24 -k RTR
r -t 15.266601496 -s 18 -d 18 -p cbr -e 512 -c 2 -a 0 -i 40 -k AGT
+ -t 15.268560477 -s 2 -d 0 -p DSR -e 60 -c 2 -a 0 -i 22 -k RTR 
- -t 15.268560477 -s 2 -d 0 -p DSR -e 60 -c 2 -a 0 -i 22 -k RTR
h -t 15.268560477 -s 2 -d 0 -p DSR -e 60 -c 2 -a 0 -i 22 -k RTR
+ -t 15.277397767 -s 5 -d 0 -p DSR -e 60 -c 2 -a 0 -i 24 -k RTR 
- -t 15.277397767 -s 5 -d 0 -p DSR -e 60 -c 2 -a 0 -i 24 -k RTR
h -t 15.277397767 -s 5 -d 0 -p DSR -e 60 -c 2 -a 0 -i 24 -k RTR
+ -t 15.284340494 -s 17 -d 7 -p DSR -e 60 -c 2 -a 0 -i 25 -k RTR 
- -t 15.284340494 -s 17 -d 7 -p DSR -e 60 -c 2 -a 0 -i 25 -k RTR
h -t 15.284340494 -s 17 -d 7 -p DSR -e 60 -c 2 -a 0 -i 25 -k RTR
+ -t 15.286335064 -s 11 -d 0 -p DSR -e 52 -c 2 -a 0 -i 17 -k RTR 
- -t 15.286335064 -s 11 -d 0 -p DSR -e 52 -c 2 -a 0 -i 17 -k RTR
h -t 15.286335064 -s 11 -d 0 -p DSR -e 52 -c 2 -a 0 -i 17 -k RTR
+ -t 15.290812502 -s 7 -d 3 -p DSR -e 60 -c 2 -a 0 -i 25 -k RTR 
- -t 15.290812502 -s 7 -d 3 -p DSR -e 60 -c 2 -a 0 -i 25 -k RTR
h -t 15.290812502 -s 7 -d 3 -p DSR -e 60 -c 2 -a 0 -i 25 -k RTR
+ -t 15.292766661 -s 12 -d 3 -p DSR -e 52 -c 2 -a 0 -i 18 -k RTR 
- -t 15.292766661 -s 12 -d 3 -p DSR -e 52 -c 2 -a 0 -i 18 -k RTR
h -t 15.292766661 -s 12 -d 3 -p DSR -e 52 -c 2 -a 0 -i 18 -k RTR
+ -t 15.294801369 -s 9 -d 3 -p DSR -e 52 -c 2 -a 0 -i 13 -k RTR 
- -t 15.294801369 -s 9 -d 3 -p DSR -e 52 -c 2 -a 0 -i 13 -k RTR
h -t 15.294801369 -s 9 -d 3 -p DSR -e 52 -c 2 -a 0 -i 13 -k RTR
+ -t 15.296695528 -s 14 -d 3 -p DSR -e 52 -c 2 -a 0 -i 11 -k RTR 
- -t 15.296695528 -s 14 -d 3 -p DSR -e 52 -c 2 -a 0 -i 11 -k RTR
h -t 15.296695528 -s 14 -d 3 -p DSR -e 52 -c 2 -a 0 -i 11 -k RTR
+ -t 15.298727800 -s 7 -d -1 -p cbr -e 512 -c 2 -a 0 -i 41 -k AGT 
- -t 15.298727800 -s 7 -d -1 -p cbr -e 512 -c 2 -a 0 -i 41 -k AGT
h -t 15.298727800 -s 7 -d -1 -p cbr -e 512 -c 2 -a 0 -i 41 -k AGT
+ -t 15.298727800 -s 7 -d 11 -p cbr -e 532 -c 2 -a 0 -i 41 -k RTR 
- -t 15.298727800 -s 7 -d 11 -p cbr -e 532 -c 2 -a 0 -i 41 -k RTR
h -t 15.298727800 -s 7 -d 11 -p cbr -e 532 -c 2 -a 0 -i 41 -k RTR
r -t 15.312037481 -s 11 -d 11 -p cbr -e 512 -c 2 -a 0 -i 41 -k AGT
+ -t 15.312235739 -s 3 -d -1 -p cbr -e 512 -c 2 -a 0 -i 42 -k AGT 
- -t 15.312235739 -s 3 -d -1 -p cbr -e 512 -c 2 -a 0 -i 42 -k AGT
h -t 15.312235739 -s 3 -d -1 -p cbr -e 512 -c 2 -a 0 -i 42 -k AGT
+ -t 15.312235739 -s 3 -d 7 -p cbr -e 532 -c 2 -a 0 -i 42 -k RTR 
- -t 15.312235739 -s 3 -d 7 -p cbr -e 532 -c 2 -a 0 -i 42 -k RTR
h -t 15.312235739 -s 3 -d 7 -p cbr -e 532 -c 2 -a 0 -i 42 -k RTR
+ -t 15.314151227 -s 13 -d 3 -p DSR -e 52 -c 2 -a 0 -i 12 -k RTR 
- -t 15.314151227 -s 13 -d 3 -p DSR -e 52 -c 2 -a 0 -i 12 -k RTR
h -t 15.314151227 -s 13 -d 3 -p DSR -e 52 -c 2 -a 0 -i 12 -k RTR
+ -t 15.322158641 -s 7 -d 18 -p cbr -e 532 -c 2 -a 0 -i 42 -k RTR 
- -t 15.322158641 -s 7 -d 18 -p cbr -e 532 -c 2 -a 0 -i 42 -k RTR
h -t 15.322158641 -s 7 -d 18 -p cbr -e 532 -c 2 -a 0 -i 42 -k RTR
r -t 15.328372877 -s 18 -d 18 -p cbr -e 512 -c 2 -a 0 -i 42 -k AGT
+ -t 15.349053048 -s 0 -d -1 -p cbr -e 512 -c 2 -a 0 -i 43 -k AGT 
- -t 15.349053048 -s 0 -d -1 -p cbr -e 512 -c 2 -a 0 -i 43 -k AGT
h -t 15.349053048 -s 0 -d -1 -p cbr -e 512 -c 2 -a 0 -i 43 -k AGT
+ -t 15.349053048 -s 0 -d 7 -p cbr -e 552 -c 2 -a 0 -i 43 -k RTR 
- -t 15.349053048 -s 0 -d 7 -p cbr -e 552 -c 2 -a 0 -i 43 -k RTR
h -t 15.349053048 -s 0 -d 7 -p cbr -e 552 -c 2 -a 0 -i 43 -k RTR
+ -t 15.355243284 -s 7 -d 18 -p cbr -e 552 -c 2 -a 0 -i 43 -k RTR 
- -t 15.355243284 -s 7 -d 18 -p cbr -e 552 -c 2 -a 0 -i 43 -k RTR
h -t 15.355243284 -s 7 -d 18 -p cbr -e 552 -c 2 -a 0 -i 43 -k RTR
r -t 15.361477520 -s 18 -d 18 -p cbr -e 512 -c 2 -a 0 -i 43 -k AGT
+ -t 15.391157798 -s 7 -d -1 -p cbr -e 512 -c 2 -a 0 -i 44 -k AGT 
- -t 15.391157798 -s 7 -d -1 -p cbr -e 512 -c 2 -a 0 -i 44 -k AGT
h -t 15.391157798 -s 7 -d -1 -p cbr -e 512 -c 2 -a 0 -i 44 -k AGT
+ -t 15.391157798 -s 7 -d 11 -p cbr -e 532 -c 2 -a 0 -i 44 -k RTR 
- -t 15.391157798 -s 7 -d 11 -p cbr -e 532 -c 2 -a 0 -i 44 -k RTR
h -t 15.391157798 -s 7 -d 11 -p cbr -e 532 -c 2 -a 0 -i 44 -k RTR
+ -t 15.394336511 -s 3 -d -1 -p cbr -e 512 -c 2 -a 0 -i 45 -k AGT 
- -t 15.394336511 -s 3 -d -1 -p cbr -e 512 -c 2 -a 0 -i 45 -k AGT
h -t 15.394336511 -s 3 -d -1 -p cbr -e 512 -c 2 -a 0 -i 45 -k AGT
+ -t 15.394336511 -s 3 -d 7 -p cbr -e 532 -c 2 -a 0 -i 45 -k RTR 
- -t 15.394336511 -s 3 -d 7 -p cbr -e 532 -c 2 -a 0 -i 45 -k RTR
h -t 15.394336511 -s 3 -d 7 -p cbr -e 532 -c 2 -a 0 -i 45 -k RTR
r -t 15.396887212 -s 11 -d 11 -p cbr -e 512 -c 2 -a 0 -i 44 -k AGT
+ -t 15.403425569 -s 7 -d 18 -p cbr -e 532 -c 2 -a 0 -i 45 -k RTR 
- -t 15.403425569 -s 7 -d 18 -p cbr -e 532 -c 2 -a 0 -i 45 -k RTR
h -t 15.403425569 -s 7 -d 18 -p cbr -e 532 -c 2 -a 0 -i 45 -k RTR
r -t 15.409519805 -s 18 -d 18 -p cbr -e 512 -c 2 -a 0 -i 45 -k AGT
+ -t 15.445675000 -s 3 -d -1 -p cbr -e 512 -c 2 -a 0 -i 46 -k AGT 
- -t 15.445675000 -s 3 -d -1 -p cbr -e 512 -c 2 -a 0 -i 46 -k AGT
h -t 15.445675000 -s 3 -d -1 -p cbr -e 512 -c 2 -a 0 -i 46 -k AGT
+ -t 15.445675000 -s 3 -d 7 -p cbr -e 532 -c 2 -a 0 -i 46 -k RTR 
- -t 15.445675000 -s 3 -d 7 -p cbr -e 532 -c 2 -a 0 -i 46 -k RTR
h -t 15.445675000 -s 3 -d 7 -p cbr -e 532 -c 2 -a 0 -i 46 -k RTR
+ -t 15.451244415 -s 7 -d 18 -p cbr -e 532 -c 2 -a 0 -i 46 -k RTR 
- -t 15.451244415 -s 7 -d 18 -p cbr -e 532 -c 2 -a 0 -i 46 -k RTR
h -t 15.451244415 -s 7 -d 18 -p cbr -e 532 -c 2 -a 0 -i 46 -k RTR
r -t 15.457258651 -s 18 -d 18 -p cbr -e 512 -c 2 -a 0 -i 46 -k AGT
+ -t 15.472239104 -s 0 -d -1 -p cbr -e 512 -c 2 -a 0 -i 47 -k AGT 
- -t 15.472239104 -s 0 -d -1 -p cbr -e 512 -c 2 -a 0 -i 47 -k AGT
h -t 15.472239104 -s 0 -d -1 -p cbr -e 512 -c 2 -a 0 -i 47 -k AGT