s 0.000000000 _0_ RTR  --- 0 WCETT 284 [0 0 0 0] ------- [0:255 -1:255 1 0] [0x1 1 [0 2] 4.000000 ] (HELLO)
s 0.000000000 _1_ RTR  --- 0 WCETT 284 [0 0 0 0] ------- [1:255 -1:255 1 0] [0x1 1 [1 2] 4.000000 ] (HELLO)
s 0.000000000 _2_ RTR  --- 0 WCETT 284 [0 0 0 0] ------- [2:255 -1:255 1 0] [0x1 1 [2 2] 4.000000 ] (HELLO)
s 0.000000000 _3_ RTR  --- 0 WCETT 284 [0 0 0 0] ------- [3:255 -1:255 1 0] [0x1 1 [3 2] 4.000000 ] (HELLO)
s 0.000000000 _4_ RTR  --- 0 WCETT 284 [0 0 0 0] ------- [4:255 -1:255 1 0] [0x1 1 [4 2] 4.000000 ] (HELLO)
s 0.000000000 _5_ RTR  --- 0 WCETT 284 [0 0 0 0] ------- [5:255 -1:255 1 0] [0x1 1 [5 2] 4.000000 ] (HELLO)
s 0.000000000 _6_ RTR  --- 0 WCETT 284 [0 0 0 0] ------- [6:255 -1:255 1 0] [0x1 1 [6 2] 4.000000 ] (HELLO)
s 0.000000000 _7_ RTR  --- 0 WCETT 284 [0 0 0 0] ------- [7:255 -1:255 1 0] [0x1 1 [7 2] 4.000000 ] (HELLO)
s 0.000000000 _8_ RTR  --- 0 WCETT 284 [0 0 0 0] ------- [8:255 -1:255 1 0] [0x1 1 [8 2] 4.000000 ] (HELLO)
s 0.000000000 _9_ RTR  --- 0 WCETT 284 [0 0 0 0] ------- [9:255 -1:255 1 0] [0x1 1 [9 2] 4.000000 ] (HELLO)
s 0.000000000 _10_ RTR  --- 0 WCETT 284 [0 0 0 0] ------- [10:255 -1:255 1 0] [0x1 1 [10 2] 4.000000 ] (HELLO)
s 0.000000000 _11_ RTR  --- 0 WCETT 284 [0 0 0 0] ------- [11:255 -1:255 1 0] [0x1 1 [11 2] 4.000000 ] (HELLO)
s 0.000000000 _12_ RTR  --- 0 WCETT 284 [0 0 0 0] ------- [12:255 -1:255 1 0] [0x1 1 [12 2] 4.000000 ] (HELLO)
s 0.000000000 _13_ RTR  --- 0 WCETT 284 [0 0 0 0] ------- [13:255 -1:255 1 0] [0x1 1 [13 2] 4.000000 ] (HELLO)
s 0.000000000 _14_ RTR  --- 0 WCETT 284 [0 0 0 0] ------- [14:255 -1:255 1 0] [0x1 1 [14 2] 4.000000 ] (HELLO)
s 0.000000000 _15_ RTR  --- 0 WCETT 284 [0 0 0 0] ------- [15:255 -1:255 1 0] [0x1 1 [15 2] 4.000000 ] (HELLO)
s 0.000000000 _16_ RTR  --- 0 WCETT 284 [0 0 0 0] ------- [16:255 -1:255 1 0] [0x1 1 [16 2] 4.000000 ] (HELLO)
s 0.000000000 _17_ RTR  --- 0 WCETT 284 [0 0 0 0] ------- [17:255 -1:255 1 0] [0x1 1 [17 2] 4.000000 ] (HELLO)
s 0.000000000 _18_ RTR  --- 0 WCETT 284 [0 0 0 0] ------- [18:255 -1:255 1 0] [0x1 1 [18 2] 4.000000 ] (HELLO)
s 0.000000000 _19_ RTR  --- 0 WCETT 284 [0 0 0 0] ------- [19:255 -1:255 1 0] [0x1 1 [19 2] 4.000000 ] (HELLO)
s 0.000000000 _20_ RTR  --- 0 WCETT 284 [0 0 0 0] ------- [20:255 -1:255 1 0] [0x1 1 [20 2] 4.000000 ] (HELLO)
s 0.000000000 _21_ RTR  --- 0 WCETT 284 [0 0 0 0] ------- [21:255 -1:255 1 0] [0x1 1 [21 2] 4.000000 ] (HELLO)
s 0.000000000 _22_ RTR  --- 0 WCETT 284 [0 0 0 0] ------- [22:255 -1:255 1 0] [0x1 1 [22 2] 4.000000 ] (HELLO)
s 0.000000000 _23_ RTR  --- 0 WCETT 284 [0 0 0 0] ------- [23:255 -1:255 1 0] [0x1 1 [23 2] 4.000000 ] (HELLO)
s 0.000000000 _24_ RTR  --- 0 WCETT 284 [0 0 0 0] ------- [24:255 -1:255 1 0] [0x1 1 [24 2] 4.000000 ] (HELLO)
s 0.000000000 _25_ RTR  --- 0 WCETT 284 [0 0 0 0] ------- [25:255 -1:255 1 0] [0x1 1 [25 2] 4.000000 ] (HELLO)
s 0.000000000 _26_ RTR  --- 0 WCETT 284 [0 0 0 0] ------- [26:255 -1:255 1 0] [0x1 1 [26 2] 4.000000 ] (HELLO)
s 0.000000000 _27_ RTR  --- 0 WCETT 284 [0 0 0 0] ------- [27:255 -1:255 1 0] [0x1 1 [27 2] 4.000000 ] (HELLO)
r 0.002788333 _1_ RTR  --- 0 WCETT 284 [0 ffffffff 4 800] ------- [4:255 -1:255 1 0] [0x1 1 [4 2] 4.000000 ] (HELLO)
r 0.002788333 _27_ RTR  --- 0 WCETT 284 [0 ffffffff 4 800] ------- [4:255 -1:255 1 0] [0x1 1 [4 2] 4.000000 ] (HELLO)
r 0.002788333 _7_ RTR  --- 0 WCETT 284 [0 ffffffff 4 800] ------- [4:255 -1:255 1 0] [0x1 1 [4 2] 4.000000 ] (HELLO)
r 0.002788333 _26_ RTR  --- 0 WCETT 284 [0 ffffffff 4 800] ------- [4:255 -1:255 1 0] [0x1 1 [4 2] 4.000000 ] (HELLO)
r 0.002788471 _25_ RTR  --- 0 WCETT 284 [0 ffffffff 4 800] ------- [4:255 -1:255 1 0] [0x1 1 [4 2] 4.000000 ] (HELLO)
r 0.002788471 _24_ RTR  --- 0 WCETT 284 [0 ffffffff 4 800] ------- [4:255 -1:255 1 0] [0x1 1 [4 2] 4.000000 ] (HELLO)
r 0.002788667 _3_ RTR  --- 0 WCETT 284 [0 ffffffff 4 800] ------- [4:255 -1:255 1 0] [0x1 1 [4 2] 4.000000 ] (HELLO)
r 0.002788667 _10_ RTR  --- 0 WCETT 284 [0 ffffffff 4 800] ------- [4:255 -1:255 1 0] [0x1 1 [4 2] 4.000000 ] (HELLO)
r 0.002788667 _5_ RTR  --- 0 WCETT 284 [0 ffffffff 4 800] ------- [4:255 -1:255 1 0] [0x1 1 [4 2] 4.000000 ] (HELLO)
r 0.002788745 _23_ RTR  --- 0 WCETT 284 [0 ffffffff 4 800] ------- [4:255 -1:255 1 0] [0x1 1 [4 2] 4.000000 ] (HELLO)
r 0.002788745 _6_ RTR  --- 0 WCETT 284 [0 ffffffff 4 800] ------- [4:255 -1:255 1 0] [0x1 1 [4 2] 4.000000 ] (HELLO)
r 0.002788745 _0_ RTR  --- 0 WCETT 284 [0 ffffffff 4 800] ------- [4:255 -1:255 1 0] [0x1 1 [4 2] 4.000000 ] (HELLO)
r 0.002788745 _22_ RTR  --- 0 WCETT 284 [0 ffffffff 4 800] ------- [4:255 -1:255 1 0] [0x1 1 [4 2] 4.000000 ] (HELLO)
r 0.002788745 _2_ RTR  --- 0 WCETT 284 [0 ffffffff 4 800] ------- [4:255 -1:255 1 0] [0x1 1 [4 2] 4.000000 ] (HELLO)
r 0.002788745 _8_ RTR  --- 0 WCETT 284 [0 ffffffff 4 800] ------- [4:255 -1:255 1 0] [0x1 1 [4 2] 4.000000 ] (HELLO)
r 0.005547079 _20_ RTR  --- 0 WCETT 284 [0 ffffffff 16 800] ------- [22:255 -1:255 1 0] [0x1 1 [22 2] 4.000000 ] (HELLO)
r 0.005547079 _10_ RTR  --- 0 WCETT 284 [0 ffffffff 16 800] ------- [22:255 -1:255 1 0] [0x1 1 [22 2] 4.000000 ] (HELLO)
r 0.005547079 _24_ RTR  --- 0 WCETT 284 [0 ffffffff 16 800] ------- [22:255 -1:255 1 0] [0x1 1 [22 2] 4.000000 ] (HELLO)
r 0.005547079 _11_ RTR  --- 0 WCETT 284 [0 ffffffff 16 800] ------- [22:255 -1:255 1 0] [0x1 1 [22 2] 4.000000 ] (HELLO)
r 0.005547217 _13_ RTR  --- 0 WCETT 284 [0 ffffffff 16 800] ------- [22:255 -1:255 1 0] [0x1 1 [22 2] 4.000000 ] (HELLO)
r 0.005547217 _7_ RTR  --- 0 WCETT 284 [0 ffffffff 16 800] ------- [22:255 -1:255 1 0] [0x1 1 [22 2] 4.000000 ] (HELLO)
r 0.005547217 _8_ RTR  --- 0 WCETT 284 [0 ffffffff 16 800] ------- [22:255 -1:255 1 0] [0x1 1 [22 2] 4.000000 ] (HELLO)
r 0.005547217 _14_ RTR  --- 0 WCETT 284 [0 ffffffff 16 800] ------- [22:255 -1:255 1 0] [0x1 1 [22 2] 4.000000 ] (HELLO)
r 0.005547412 _18_ RTR  --- 0 WCETT 284 [0 ffffffff 16 800] ------- [22:255 -1:255 1 0] [0x1 1 [22 2] 4.000000 ] (HELLO)
r 0.005547412 _23_ RTR  --- 0 WCETT 284 [0 ffffffff 16 800] ------- [22:255 -1:255 1 0] [0x1 1 [22 2] 4.000000 ] (HELLO)
r 0.005547412 _26_ RTR  --- 0 WCETT 284 [0 ffffffff 16 800] ------- [22:255 -1:255 1 0] [0x1 1 [22 2] 4.000000 ] (HELLO)
r 0.005547491 _16_ RTR  --- 0 WCETT 284 [0 ffffffff 16 800] ------- [22:255 -1:255 1 0] [0x1 1 [22 2] 4.000000 ] (HELLO)
r 0.005547491 _4_ RTR  --- 0 WCETT 284 [0 ffffffff 16 800] ------- [22:255 -1:255 1 0] [0x1 1 [22 2] 4.000000 ] (HELLO)
r 0.005547491 _25_ RTR  --- 0 WCETT 284 [0 ffffffff 16 800] ------- [22:255 -1:255 1 0] [0x1 1 [22 2] 4.000000 ] (HELLO)
r 0.005547491 _21_ RTR  --- 0 WCETT 284 [0 ffffffff 16 800] ------- [22:255 -1:255 1 0] [0x1 1 [22 2] 4.000000 ] (HELLO)
r 0.005547491 _5_ RTR  --- 0 WCETT 284 [0 ffffffff 16 800] ------- [22:255 -1:255 1 0] [0x1 1 [22 2] 4.000000 ] (HELLO)
r 0.005547491 _17_ RTR  --- 0 WCETT 284 [0 ffffffff 16 800] ------- [22:255 -1:255 1 0] [0x1 1 [22 2] 4.000000 ] (HELLO)
r 0.008325412 _8_ RTR  --- 0 WCETT 284 [0 ffffffff b 800] ------- [11:255 -1:255 1 0] [0x1 1 [11 2] 4.000000 ] (HELLO)
r 0.008325412 _22_ RTR  --- 0 WCETT 284 [0 ffffffff b 800] ------- [11:255 -1:255 1 0] [0x1 1 [11 2] 4.000000 ] (HELLO)
r 0.008325412 _14_ RTR  --- 0 WCETT 284 [0 ffffffff b 800] ------- [11:255 -1:255 1 0] [0x1 1 [11 2] 4.000000 ] (HELLO)
r 0.008325550 _24_ RTR  --- 0 WCETT 284 [0 ffffffff b 800] ------- [11:255 -1:255 1 0] [0x1 1 [11 2] 4.000000 ] (HELLO)
r 0.008325550 _20_ RTR  --- 0 WCETT 284 [0 ffffffff b 800] ------- [11:255 -1:255 1 0] [0x1 1 [11 2] 4.000000 ] (HELLO)
r 0.008325745 _5_ RTR  --- 0 WCETT 284 [0 ffffffff b 800] ------- [11:255 -1:255 1 0] [0x1 1 [11 2] 4.000000 ] (HELLO)
r 0.008325745 _10_ RTR  --- 0 WCETT 284 [0 ffffffff b 800] ------- [11:255 -1:255 1 0] [0x1 1 [11 2] 4.000000 ] (HELLO)
r 0.008325745 _17_ RTR  --- 0 WCETT 284 [0 ffffffff b 800] ------- [11:255 -1:255 1 0] [0x1 1 [11 2] 4.000000 ] (HELLO)
r 0.008325824 _26_ RTR  --- 0 WCETT 284 [0 ffffffff b 800] ------- [11:255 -1:255 1 0] [0x1 1 [11 2] 4.000000 ] (HELLO)
r 0.008325824 _18_ RTR  --- 0 WCETT 284 [0 ffffffff b 800] ------- [11:255 -1:255 1 0] [0x1 1 [11 2] 4.000000 ] (HELLO)
r 0.008325824 _13_ RTR  --- 0 WCETT 284 [0 ffffffff b 800] ------- [11:255 -1:255 1 0] [0x1 1 [11 2] 4.000000 ] (HELLO)
r 0.008325824 _7_ RTR  --- 0 WCETT 284 [0 ffffffff b 800] ------- [11:255 -1:255 1 0] [0x1 1 [11 2] 4.000000 ] (HELLO)
r 0.011164079 _2_ RTR  --- 0 WCETT 284 [0 ffffffff 5 800] ------- [5:255 -1:255 1 0] [0x1 1 [5 2] 4.000000 ] (HELLO)
r 0.011164079 _26_ RTR  --- 0 WCETT 284 [0 ffffffff 5 800] ------- [5:255 -1:255 1 0] [0x1 1 [5 2] 4.000000 ] (HELLO)
r 0.011164079 _8_ RTR  --- 0 WCETT 284 [0 ffffffff 5 800] ------- [5:255 -1:255 1 0] [0x1 1 [5 2] 4.000000 ] (HELLO)
r 0.011164217 _24_ RTR  --- 0 WCETT 284 [0 ffffffff 5 800] ------- [5:255 -1:255 1 0] [0x1 1 [5 2] 4.000000 ] (HELLO)
r 0.011164412 _4_ RTR  --- 0 WCETT 284 [0 ffffffff 5 800] ------- [5:255 -1:255 1 0] [0x1 1 [5 2] 4.000000 ] (HELLO)
r 0.011164412 _11_ RTR  --- 0 WCETT 284 [0 ffffffff 5 800] ------- [5:255 -1:255 1 0] [0x1 1 [5 2] 4.000000 ] (HELLO)
r 0.011164491 _1_ RTR  --- 0 WCETT 284 [0 ffffffff 5 800] ------- [5:255 -1:255 1 0] [0x1 1 [5 2] 4.000000 ] (HELLO)
r 0.014182412 _5_ RTR  --- 0 WCETT 284 [0 ffffffff 2 800] ------- [2:255 -1:255 1 0] [0x1 1 [2 2] 4.000000 ] (HELLO)
r 0.014182550 _26_ RTR  --- 0 WCETT 284 [0 ffffffff 2 800] ------- [2:255 -1:255 1 0] [0x1 1 [2 2] 4.000000 ] (HELLO)
r 0.014182745 _1_ RTR  --- 0 WCETT 284 [0 ffffffff 2 800] ------- [2:255 -1:255 1 0] [0x1 1 [2 2] 4.000000 ] (HELLO)
r 0.014182745 _8_ RTR  --- 0 WCETT 284 [0 ffffffff 2 800] ------- [2:255 -1:255 1 0] [0x1 1 [2 2] 4.000000 ] (HELLO)
r 0.014182824 _4_ RTR  --- 0 WCETT 284 [0 ffffffff 2 800] ------- [2:255 -1:255 1 0] [0x1 1 [2 2] 4.000000 ] (HELLO)
r 0.015091236 _15_ RTR  --- 0 WCETT 284 [0 ffffffff 13 800] ------- [19:255 -1:255 1 0] [0x1 1 [19 2] 4.000000 ] (HELLO)
r 0.015091236 _21_ RTR  --- 0 WCETT 284 [0 ffffffff 13 800] ------- [19:255 -1:255 1 0] [0x1 1 [19 2] 4.000000 ] (HELLO)
r 0.015091236 _16_ RTR  --- 0 WCETT 284 [0 ffffffff 13 800] ------- [19:255 -1:255 1 0] [0x1 1 [19 2] 4.000000 ] (HELLO)
r 0.015091374 _12_ RTR  --- 0 WCETT 284 [0 ffffffff 13 800] ------- [19:255 -1:255 1 0] [0x1 1 [19 2] 4.000000 ] (HELLO)
r 0.015091374 _13_ RTR  --- 0 WCETT 284 [0 ffffffff 13 800] ------- [19:255 -1:255 1 0] [0x1 1 [19 2] 4.000000 ] (HELLO)
r 0.015091569 _23_ RTR  --- 0 WCETT 284 [0 ffffffff 13 800] ------- [19:255 -1:255 1 0] [0x1 1 [19 2] 4.000000 ] (HELLO)
r 0.015091648 _9_ RTR  --- 0 WCETT 284 [0 ffffffff 13 800] ------- [19:255 -1:255 1 0] [0x1 1 [19 2] 4.000000 ] (HELLO)
r 0.017849707 _10_ RTR  --- 0 WCETT 284 [0 ffffffff d 800] ------- [13:255 -1:255 1 0] [0x1 1 [13 2] 4.000000 ] (HELLO)
r 0.017849707 _21_ RTR  --- 0 WCETT 284 [0 ffffffff d 800] ------- [13:255 -1:255 1 0] [0x1 1 [13 2] 4.000000 ] (HELLO)
r 0.017849707 _16_ RTR  --- 0 WCETT 284 [0 ffffffff d 800] ------- [13:255 -1:255 1 0] [0x1 1 [13 2] 4.000000 ] (HELLO)
r 0.017849707 _20_ RTR  --- 0 WCETT 284 [0 ffffffff d 800] ------- [13:255 -1:255 1 0] [0x1 1 [13 2] 4.000000 ] (HELLO)
r 0.017849846 _23_ RTR  --- 0 WCETT 284 [0 ffffffff d 800] ------- [13:255 -1:255 1 0] [0x1 1 [13 2] 4.000000 ] (HELLO)
r 0.017849846 _19_ RTR  --- 0 WCETT 284 [0 ffffffff d 800] ------- [13:255 -1:255 1 0] [0x1 1 [13 2] 4.000000 ] (HELLO)
r 0.017849846 _18_ RTR  --- 0 WCETT 284 [0 ffffffff d 800] ------- [13:255 -1:255 1 0] [0x1 1 [13 2] 4.000000 ] (HELLO)
r 0.017849846 _22_ RTR  --- 0 WCETT 284 [0 ffffffff d 800] ------- [13:255 -1:255 1 0] [0x1 1 [13 2] 4.000000 ] (HELLO)
r 0.017850041 _7_ RTR  --- 0 WCETT 284 [0 ffffffff d 800] ------- [13:255 -1:255 1 0] [0x1 1 [13 2] 4.000000 ] (HELLO)
r 0.017850041 _12_ RTR  --- 0 WCETT 284 [0 ffffffff d 800] ------- [13:255 -1:255 1 0] [0x1 1 [13 2] 4.000000 ] (HELLO)
r 0.017850041 _14_ RTR  --- 0 WCETT 284 [0 ffffffff d 800] ------- [13:255 -1:255 1 0] [0x1 1 [13 2] 4.000000 ] (HELLO)
r 0.017850119 _25_ RTR  --- 0 WCETT 284 [0 ffffffff d 800] ------- [13:255 -1:255 1 0] [0x1 1 [13 2] 4.000000 ] (HELLO)
r 0.017850119 _15_ RTR  --- 0 WCETT 284 [0 ffffffff d 800] ------- [13:255 -1:255 1 0] [0x1 1 [13 2] 4.000000 ] (HELLO)
r 0.017850119 _9_ RTR  --- 0 WCETT 284 [0 ffffffff d 800] ------- [13:255 -1:255 1 0] [0x1 1 [13 2] 4.000000 ] (HELLO)
r 0.017850119 _24_ RTR  --- 0 WCETT 284 [0 ffffffff d 800] ------- [13:255 -1:255 1 0] [0x1 1 [13 2] 4.000000 ] (HELLO)
r 0.017850119 _11_ RTR  --- 0 WCETT 284 [0 ffffffff d 800] ------- [13:255 -1:255 1 0] [0x1 1 [13 2] 4.000000 ] (HELLO)
r 0.017850119 _17_ RTR  --- 0 WCETT 284 [0 ffffffff d 800] ------- [13:255 -1:255 1 0] [0x1 1 [13 2] 4.000000 ] (HELLO)
r 0.020648041 _18_ RTR  --- 0 WCETT 284 [0 ffffffff 14 800] ------- [20:255 -1:255 1 0] [0x1 1 [20 2] 4.000000 ] (HELLO)
r 0.020648041 _13_ RTR  --- 0 WCETT 284 [0 ffffffff 14 800] ------- [20:255 -1:255 1 0] [0x1 1 [20 2] 4.000000 ] (HELLO)
r 0.020648041 _22_ RTR  --- 0 WCETT 284 [0 ffffffff 14 800] ------- [20:255 -1:255 1 0] [0x1 1 [20 2] 4.000000 ] (HELLO)
r 0.020648041 _14_ RTR  --- 0 WCETT 284 [0 ffffffff 14 800] ------- [20:255 -1:255 1 0] [0x1 1 [20 2] 4.000000 ] (HELLO)
r 0.020648179 _16_ RTR  --- 0 WCETT 284 [0 ffffffff 14 800] ------- [20:255 -1:255 1 0] [0x1 1 [20 2] 4.000000 ] (HELLO)
r 0.020648179 _10_ RTR  --- 0 WCETT 284 [0 ffffffff 14 800] ------- [20:255 -1:255 1 0] [0x1 1 [20 2] 4.000000 ] (HELLO)
r 0.020648179 _11_ RTR  --- 0 WCETT 284 [0 ffffffff 14 800] ------- [20:255 -1:255 1 0] [0x1 1 [20 2] 4.000000 ] (HELLO)
r 0.020648179 _17_ RTR  --- 0 WCETT 284 [0 ffffffff 14 800] ------- [20:255 -1:255 1 0] [0x1 1 [20 2] 4.000000 ] (HELLO)
r 0.020648374 _21_ RTR  --- 0 WCETT 284 [0 ffffffff 14 800] ------- [20:255 -1:255 1 0] [0x1 1 [20 2] 4.000000 ] (HELLO)
r 0.020648374 _24_ RTR  --- 0 WCETT 284 [0 ffffffff 14 800] ------- [20:255 -1:255 1 0] [0x1 1 [20 2] 4.000000 ] (HELLO)
r 0.020648453 _7_ RTR  --- 0 WCETT 284 [0 ffffffff 14 800] ------- [20:255 -1:255 1 0] [0x1 1 [20 2] 4.000000 ] (HELLO)
r 0.020648453 _23_ RTR  --- 0 WCETT 284 [0 ffffffff 14 800] ------- [20:255 -1:255 1 0] [0x1 1 [20 2] 4.000000 ] (HELLO)
r 0.020648453 _19_ RTR  --- 0 WCETT 284 [0 ffffffff 14 800] ------- [20:255 -1:255 1 0] [0x1 1 [20 2] 4.000000 ] (HELLO)
r 0.020648453 _8_ RTR  --- 0 WCETT 284 [0 ffffffff 14 800] ------- [20:255 -1:255 1 0] [0x1 1 [20 2] 4.000000 ] (HELLO)
r 0.023406512 _7_ RTR  --- 0 WCETT 284 [0 ffffffff a 800] ------- [10:255 -1:255 1 0] [0x1 1 [10 2] 4.000000 ] (HELLO)
r 0.023406512 _13_ RTR  --- 0 WCETT 284 [0 ffffffff a 800] ------- [10:255 -1:255 1 0] [0x1 1 [10 2] 4.000000 ] (HELLO)
r 0.023406786 _4_ RTR  --- 0 WCETT 284 [0 ffffffff 7 800] ------- [7:255 -1:255 1 0] [0x1 1 [7 2] 4.000000 ] (HELLO)
r 0.023406786 _10_ RTR  --- 0 WCETT 284 [0 ffffffff 7 800] ------- [7:255 -1:255 1 0] [0x1 1 [7 2] 4.000000 ] (HELLO)
r 0.026529729 _3_ RTR  --- 0 WCETT 284 [0 ffffffff 0 800] ------- [0:255 -1:255 1 0] [0x1 1 [0 2] 4.000000 ] (HELLO)
r 0.026529786 _13_ RTR  --- 0 WCETT 284 [0 ffffffff 10 800] ------- [16:255 -1:255 1 0] [0x1 1 [16 2] 4.000000 ] (HELLO)
r 0.026529786 _19_ RTR  --- 0 WCETT 284 [0 ffffffff 10 800] ------- [16:255 -1:255 1 0] [0x1 1 [16 2] 4.000000 ] (HELLO)
r 0.026529786 _18_ RTR  --- 0 WCETT 284 [0 ffffffff 10 800] ------- [16:255 -1:255 1 0] [0x1 1 [16 2] 4.000000 ] (HELLO)
r 0.026529867 _27_ RTR  --- 0 WCETT 284 [0 ffffffff 0 800] ------- [0:255 -1:255 1 0] [0x1 1 [0 2] 4.000000 ] (HELLO)
r 0.026529924 _21_ RTR  --- 0 WCETT 284 [0 ffffffff 10 800] ------- [16:255 -1:255 1 0] [0x1 1 [16 2] 4.000000 ] (HELLO)
r 0.026529924 _20_ RTR  --- 0 WCETT 284 [0 ffffffff 10 800] ------- [16:255 -1:255 1 0] [0x1 1 [16 2] 4.000000 ] (HELLO)
r 0.026530062 _6_ RTR  --- 0 WCETT 284 [0 ffffffff 0 800] ------- [0:255 -1:255 1 0] [0x1 1 [0 2] 4.000000 ] (HELLO)
r 0.026530062 _1_ RTR  --- 0 WCETT 284 [0 ffffffff 0 800] ------- [0:255 -1:255 1 0] [0x1 1 [0 2] 4.000000 ] (HELLO)
r 0.026530119 _10_ RTR  --- 0 WCETT 284 [0 ffffffff 10 800] ------- [16:255 -1:255 1 0] [0x1 1 [16 2] 4.000000 ] (HELLO)
r 0.026530119 _15_ RTR  --- 0 WCETT 284 [0 ffffffff 10 800] ------- [16:255 -1:255 1 0] [0x1 1 [16 2] 4.000000 ] (HELLO)
r 0.026530119 _17_ RTR  --- 0 WCETT 284 [0 ffffffff 10 800] ------- [16:255 -1:255 1 0] [0x1 1 [16 2] 4.000000 ] (HELLO)
r 0.026530141 _4_ RTR  --- 0 WCETT 284 [0 ffffffff 0 800] ------- [0:255 -1:255 1 0] [0x1 1 [0 2] 4.000000 ] (HELLO)
r 0.026530198 _12_ RTR  --- 0 WCETT 284 [0 ffffffff 10 800] ------- [16:255 -1:255 1 0] [0x1 1 [16 2] 4.000000 ] (HELLO)
r 0.026530198 _22_ RTR  --- 0 WCETT 284 [0 ffffffff 10 800] ------- [16:255 -1:255 1 0] [0x1 1 [16 2] 4.000000 ] (HELLO)
r 0.026530198 _14_ RTR  --- 0 WCETT 284 [0 ffffffff 10 800] ------- [16:255 -1:255 1 0] [0x1 1 [16 2] 4.000000 ] (HELLO)
r 0.029368119 _16_ RTR  --- 0 WCETT 284 [0 ffffffff 12 800] ------- [18:255 -1:255 1 0] [0x1 1 [18 2] 4.000000 ] (HELLO)
r 0.029368119 _20_ RTR  --- 0 WCETT 284 [0 ffffffff 12 800] ------- [18:255 -1:255 1 0] [0x1 1 [18 2] 4.000000 ] (HELLO)
r 0.029368119 _17_ RTR  --- 0 WCETT 284 [0 ffffffff 12 800] ------- [18:255 -1:255 1 0] [0x1 1 [18 2] 4.000000 ] (HELLO)
r 0.029368258 _13_ RTR  --- 0 WCETT 284 [0 ffffffff 12 800] ------- [18:255 -1:255 1 0] [0x1 1 [18 2] 4.000000 ] (HELLO)
r 0.029368258 _14_ RTR  --- 0 WCETT 284 [0 ffffffff 12 800] ------- [18:255 -1:255 1 0] [0x1 1 [18 2] 4.000000 ] (HELLO)
r 0.029368453 _19_ RTR  --- 0 WCETT 284 [0 ffffffff 12 800] ------- [18:255 -1:255 1 0] [0x1 1 [18 2] 4.000000 ] (HELLO)
r 0.029368453 _22_ RTR  --- 0 WCETT 284 [0 ffffffff 12 800] ------- [18:255 -1:255 1 0] [0x1 1 [18 2] 4.000000 ] (HELLO)
r 0.029368532 _10_ RTR  --- 0 WCETT 284 [0 ffffffff 12 800] ------- [18:255 -1:255 1 0] [0x1 1 [18 2] 4.000000 ] (HELLO)
r 0.029368532 _21_ RTR  --- 0 WCETT 284 [0 ffffffff 12 800] ------- [18:255 -1:255 1 0] [0x1 1 [18 2] 4.000000 ] (HELLO)
r 0.029368532 _11_ RTR  --- 0 WCETT 284 [0 ffffffff 12 800] ------- [18:255 -1:255 1 0] [0x1 1 [18 2] 4.000000 ] (HELLO)
r 0.032146591 _11_ RTR  --- 0 WCETT 284 [0 ffffffff e 800] ------- [14:255 -1:255 1 0] [0x1 1 [14 2] 4.000000 ] (HELLO)
r 0.032146591 _20_ RTR  --- 0 WCETT 284 [0 ffffffff e 800] ------- [14:255 -1:255 1 0] [0x1 1 [14 2] 4.000000 ] (HELLO)
r 0.032146591 _17_ RTR  --- 0 WCETT 284 [0 ffffffff e 800] ------- [14:255 -1:255 1 0] [0x1 1 [14 2] 4.000000 ] (HELLO)
r 0.032146729 _22_ RTR  --- 0 WCETT 284 [0 ffffffff e 800] ------- [14:255 -1:255 1 0] [0x1 1 [14 2] 4.000000 ] (HELLO)
r 0.032146729 _18_ RTR  --- 0 WCETT 284 [0 ffffffff e 800] ------- [14:255 -1:255 1 0] [0x1 1 [14 2] 4.000000 ] (HELLO)
r 0.032146924 _8_ RTR  --- 0 WCETT 284 [0 ffffffff e 800] ------- [14:255 -1:255 1 0] [0x1 1 [14 2] 4.000000 ] (HELLO)
r 0.032146924 _13_ RTR  --- 0 WCETT 284 [0 ffffffff e 800] ------- [14:255 -1:255 1 0] [0x1 1 [14 2] 4.000000 ] (HELLO)
r 0.032147003 _24_ RTR  --- 0 WCETT 284 [0 ffffffff e 800] ------- [14:255 -1:255 1 0] [0x1 1 [14 2] 4.000000 ] (HELLO)
r 0.032147003 _16_ RTR  --- 0 WCETT 284 [0 ffffffff e 800] ------- [14:255 -1:255 1 0] [0x1 1 [14 2] 4.000000 ] (HELLO)
r 0.032147003 _10_ RTR  --- 0 WCETT 284 [0 ffffffff e 800] ------- [14:255 -1:255 1 0] [0x1 1 [14 2] 4.000000 ] (HELLO)
r 0.034984924 _14_ RTR  --- 0 WCETT 284 [0 ffffffff 11 800] ------- [17:255 -1:255 1 0] [0x1 1 [17 2] 4.000000 ] (HELLO)
r 0.034984924 _18_ RTR  --- 0 WCETT 284 [0 ffffffff 11 800] ------- [17:255 -1:255 1 0] [0x1 1 [17 2] 4.000000 ] (HELLO)
r 0.034985062 _20_ RTR  --- 0 WCETT 284 [0 ffffffff 11 800] ------- [17:255 -1:255 1 0] [0x1 1 [17 2] 4.000000 ] (HELLO)
r 0.034985258 _11_ RTR  --- 0 WCETT 284 [0 ffffffff 11 800] ------- [17:255 -1:255 1 0] [0x1 1 [17 2] 4.000000 ] (HELLO)
r 0.034985258 _16_ RTR  --- 0 WCETT 284 [0 ffffffff 11 800] ------- [17:255 -1:255 1 0] [0x1 1 [17 2] 4.000000 ] (HELLO)
r 0.035530258 _0_ RTR  --- 0 WCETT 284 [0 ffffffff 3 800] ------- [3:255 -1:255 1 0] [0x1 1 [3 2] 4.000000 ] (HELLO)
r 0.038653312 _19_ RTR  --- 0 WCETT 284 [0 ffffffff 15 800] ------- [21:255 -1:255 1 0] [0x1 1 [21 2] 4.000000 ] (HELLO)
r 0.038653312 _12_ RTR  --- 0 WCETT 284 [0 ffffffff 15 800] ------- [21:255 -1:255 1 0] [0x1 1 [21 2] 4.000000 ] (HELLO)
r 0.038653312 _23_ RTR  --- 0 WCETT 284 [0 ffffffff 15 800] ------- [21:255 -1:255 1 0] [0x1 1 [21 2] 4.000000 ] (HELLO)
r 0.038653312 _13_ RTR  --- 0 WCETT 284 [0 ffffffff 15 800] ------- [21:255 -1:255 1 0] [0x1 1 [21 2] 4.000000 ] (HELLO)
r 0.038653450 _15_ RTR  --- 0 WCETT 284 [0 ffffffff 15 800] ------- [21:255 -1:255 1 0] [0x1 1 [21 2] 4.000000 ] (HELLO)
r 0.038653450 _9_ RTR  --- 0 WCETT 284 [0 ffffffff 15 800] ------- [21:255 -1:255 1 0] [0x1 1 [21 2] 4.000000 ] (HELLO)
r 0.038653450 _10_ RTR  --- 0 WCETT 284 [0 ffffffff 15 800] ------- [21:255 -1:255 1 0] [0x1 1 [21 2] 4.000000 ] (HELLO)
r 0.038653450 _16_ RTR  --- 0 WCETT 284 [0 ffffffff 15 800] ------- [21:255 -1:255 1 0] [0x1 1 [21 2] 4.000000 ] (HELLO)
r 0.038653645 _25_ RTR  --- 0 WCETT 284 [0 ffffffff 15 800] ------- [21:255 -1:255 1 0] [0x1 1 [21 2] 4.000000 ] (HELLO)
r 0.038653645 _20_ RTR  --- 0 WCETT 284 [0 ffffffff 15 800] ------- [21:255 -1:255 1 0] [0x1 1 [21 2] 4.000000 ] (HELLO)
r 0.038653724 _6_ RTR  --- 0 WCETT 284 [0 ffffffff 15 800] ------- [21:255 -1:255 1 0] [0x1 1 [21 2] 4.000000 ] (HELLO)
r 0.038653724 _7_ RTR  --- 0 WCETT 284 [0 ffffffff 15 800] ------- [21:255 -1:255 1 0] [0x1 1 [21 2] 4.000000 ] (HELLO)
r 0.038653724 _18_ RTR  --- 0 WCETT 284 [0 ffffffff 15 800] ------- [21:255 -1:255 1 0] [0x1 1 [21 2] 4.000000 ] (HELLO)
r 0.038653724 _22_ RTR  --- 0 WCETT 284 [0 ffffffff 15 800] ------- [21:255 -1:255 1 0] [0x1 1 [21 2] 4.000000 ] (HELLO)
r 0.041411978 _23_ RTR  --- 0 WCETT 284 [0 ffffffff 19 800] ------- [25:255 -1:255 1 0] [0x1 1 [25 2] 4.000000 ] (HELLO)
r 0.041411978 _6_ RTR  --- 0 WCETT 284 [0 ffffffff 19 800] ------- [25:255 -1:255 1 0] [0x1 1 [25 2] 4.000000 ] (HELLO)
r 0.041411978 _27_ RTR  --- 0 WCETT 284 [0 ffffffff 19 800] ------- [25:255 -1:255 1 0] [0x1 1 [25 2] 4.000000 ] (HELLO)
r 0.041411978 _7_ RTR  --- 0 WCETT 284 [0 ffffffff 19 800] ------- [25:255 -1:255 1 0] [0x1 1 [25 2] 4.000000 ] (HELLO)
r 0.041412116 _9_ RTR  --- 0 WCETT 284 [0 ffffffff 19 800] ------- [25:255 -1:255 1 0] [0x1 1 [25 2] 4.000000 ] (HELLO)
r 0.041412116 _3_ RTR  --- 0 WCETT 284 [0 ffffffff 19 800] ------- [25:255 -1:255 1 0] [0x1 1 [25 2] 4.000000 ] (HELLO)
r 0.041412116 _4_ RTR  --- 0 WCETT 284 [0 ffffffff 19 800] ------- [25:255 -1:255 1 0] [0x1 1 [25 2] 4.000000 ] (HELLO)
r 0.041412116 _10_ RTR  --- 0 WCETT 284 [0 ffffffff 19 800] ------- [25:255 -1:255 1 0] [0x1 1 [25 2] 4.000000 ] (HELLO)
r 0.041412312 _21_ RTR  --- 0 WCETT 284 [0 ffffffff 19 800] ------- [25:255 -1:255 1 0] [0x1 1 [25 2] 4.000000 ] (HELLO)
r 0.041412312 _24_ RTR  --- 0 WCETT 284 [0 ffffffff 19 800] ------- [25:255 -1:255 1 0] [0x1 1 [25 2] 4.000000 ] (HELLO)
r 0.041412390 _12_ RTR  --- 0 WCETT 284 [0 ffffffff 19 800] ------- [25:255 -1:255 1 0] [0x1 1 [25 2] 4.000000 ] (HELLO)
r 0.041412390 _0_ RTR  --- 0 WCETT 284 [0 ffffffff 19 800] ------- [25:255 -1:255 1 0] [0x1 1 [25 2] 4.000000 ] (HELLO)
r 0.041412390 _1_ RTR  --- 0 WCETT 284 [0 ffffffff 19 800] ------- [25:255 -1:255 1 0] [0x1 1 [25 2] 4.000000 ] (HELLO)
r 0.041412390 _13_ RTR  --- 0 WCETT 284 [0 ffffffff 19 800] ------- [25:255 -1:255 1 0] [0x1 1 [25 2] 4.000000 ] (HELLO)
r 0.041412390 _22_ RTR  --- 0 WCETT 284 [0 ffffffff 19 800] ------- [25:255 -1:255 1 0] [0x1 1 [25 2] 4.000000 ] (HELLO)
r 0.041412390 _26_ RTR  --- 0 WCETT 284 [0 ffffffff 19 800] ------- [25:255 -1:255 1 0] [0x1 1 [25 2] 4.000000 ] (HELLO)
r 0.044170312 _21_ RTR  --- 0 WCETT 284 [0 ffffffff 17 800] ------- [23:255 -1:255 1 0] [0x1 1 [23 2] 4.000000 ] (HELLO)
r 0.044170312 _9_ RTR  --- 0 WCETT 284 [0 ffffffff 17 800] ------- [23:255 -1:255 1 0] [0x1 1 [23 2] 4.000000 ] (HELLO)
r 0.044170312 _25_ RTR  --- 0 WCETT 284 [0 ffffffff 17 800] ------- [23:255 -1:255 1 0] [0x1 1 [23 2] 4.000000 ] (HELLO)
r 0.044170312 _10_ RTR  --- 0 WCETT 284 [0 ffffffff 17 800] ------- [23:255 -1:255 1 0] [0x1 1 [23 2] 4.000000 ] (HELLO)
r 0.044170450 _12_ RTR  --- 0 WCETT 284 [0 ffffffff 17 800] ------- [23:255 -1:255 1 0] [0x1 1 [23 2] 4.000000 ] (HELLO)
r 0.044170450 _6_ RTR  --- 0 WCETT 284 [0 ffffffff 17 800] ------- [23:255 -1:255 1 0] [0x1 1 [23 2] 4.000000 ] (HELLO)
r 0.044170450 _7_ RTR  --- 0 WCETT 284 [0 ffffffff 17 800] ------- [23:255 -1:255 1 0] [0x1 1 [23 2] 4.000000 ] (HELLO)
r 0.044170450 _13_ RTR  --- 0 WCETT 284 [0 ffffffff 17 800] ------- [23:255 -1:255 1 0] [0x1 1 [23 2] 4.000000 ] (HELLO)
r 0.044170645 _19_ RTR  --- 0 WCETT 284 [0 ffffffff 17 800] ------- [23:255 -1:255 1 0] [0x1 1 [23 2] 4.000000 ] (HELLO)
r 0.044170645 _27_ RTR  --- 0 WCETT 284 [0 ffffffff 17 800] ------- [23:255 -1:255 1 0] [0x1 1 [23 2] 4.000000 ] (HELLO)
r 0.044170645 _22_ RTR  --- 0 WCETT 284 [0 ffffffff 17 800] ------- [23:255 -1:255 1 0] [0x1 1 [23 2] 4.000000 ] (HELLO)
r 0.044170724 _15_ RTR  --- 0 WCETT 284 [0 ffffffff 17 800] ------- [23:255 -1:255 1 0] [0x1 1 [23 2] 4.000000 ] (HELLO)
r 0.044170724 _3_ RTR  --- 0 WCETT 284 [0 ffffffff 17 800] ------- [23:255 -1:255 1 0] [0x1 1 [23 2] 4.000000 ] (HELLO)
r 0.044170724 _4_ RTR  --- 0 WCETT 284 [0 ffffffff 17 800] ------- [23:255 -1:255 1 0] [0x1 1 [23 2] 4.000000 ] (HELLO)
r 0.044170724 _16_ RTR  --- 0 WCETT 284 [0 ffffffff 17 800] ------- [23:255 -1:255 1 0] [0x1 1 [23 2] 4.000000 ] (HELLO)
r 0.044170724 _20_ RTR  --- 0 WCETT 284 [0 ffffffff 17 800] ------- [23:255 -1:255 1 0] [0x1 1 [23 2] 4.000000 ] (HELLO)
r 0.044170724 _24_ RTR  --- 0 WCETT 284 [0 ffffffff 17 800] ------- [23:255 -1:255 1 0] [0x1 1 [23 2] 4.000000 ] (HELLO)
r 0.046949057 _22_ RTR  --- 0 WCETT 284 [0 ffffffff 18 800] ------- [24:255 -1:255 1 0] [0x1 1 [24 2] 4.000000 ] (HELLO)
r 0.046949057 _7_ RTR  --- 0 WCETT 284 [0 ffffffff 18 800] ------- [24:255 -1:255 1 0] [0x1 1 [24 2] 4.000000 ] (HELLO)
r 0.046949057 _26_ RTR  --- 0 WCETT 284 [0 ffffffff 18 800] ------- [24:255 -1:255 1 0] [0x1 1 [24 2] 4.000000 ] (HELLO)
r 0.046949057 _8_ RTR  --- 0 WCETT 284 [0 ffffffff 18 800] ------- [24:255 -1:255 1 0] [0x1 1 [24 2] 4.000000 ] (HELLO)
r 0.046949195 _10_ RTR  --- 0 WCETT 284 [0 ffffffff 18 800] ------- [24:255 -1:255 1 0] [0x1 1 [24 2] 4.000000 ] (HELLO)
r 0.046949195 _4_ RTR  --- 0 WCETT 284 [0 ffffffff 18 800] ------- [24:255 -1:255 1 0] [0x1 1 [24 2] 4.000000 ] (HELLO)
r 0.046949195 _5_ RTR  --- 0 WCETT 284 [0 ffffffff 18 800] ------- [24:255 -1:255 1 0] [0x1 1 [24 2] 4.000000 ] (HELLO)
r 0.046949195 _11_ RTR  --- 0 WCETT 284 [0 ffffffff 18 800] ------- [24:255 -1:255 1 0] [0x1 1 [24 2] 4.000000 ] (HELLO)
r 0.046949390 _20_ RTR  --- 0 WCETT 284 [0 ffffffff 18 800] ------- [24:255 -1:255 1 0] [0x1 1 [24 2] 4.000000 ] (HELLO)
r 0.046949390 _25_ RTR  --- 0 WCETT 284 [0 ffffffff 18 800] ------- [24:255 -1:255 1 0] [0x1 1 [24 2] 4.000000 ] (HELLO)
r 0.046949469 _13_ RTR  --- 0 WCETT 284 [0 ffffffff 18 800] ------- [24:255 -1:255 1 0] [0x1 1 [24 2] 4.000000 ] (HELLO)
r 0.046949469 _1_ RTR  --- 0 WCETT 284 [0 ffffffff 18 800] ------- [24:255 -1:255 1 0] [0x1 1 [24 2] 4.000000 ] (HELLO)
r 0.046949469 _27_ RTR  --- 0 WCETT 284 [0 ffffffff 18 800] ------- [24:255 -1:255 1 0] [0x1 1 [24 2] 4.000000 ] (HELLO)
r 0.046949469 _23_ RTR  --- 0 WCETT 284 [0 ffffffff 18 800] ------- [24:255 -1:255 1 0] [0x1 1 [24 2] 4.000000 ] (HELLO)
r 0.046949469 _2_ RTR  --- 0 WCETT 284 [0 ffffffff 18 800] ------- [24:255 -1:255 1 0] [0x1 1 [24 2] 4.000000 ] (HELLO)
r 0.046949469 _14_ RTR  --- 0 WCETT 284 [0 ffffffff 18 800] ------- [24:255 -1:255 1 0] [0x1 1 [24 2] 4.000000 ] (HELLO)
r 0.049727390 _5_ RTR  --- 0 WCETT 284 [0 ffffffff 8 800] ------- [8:255 -1:255 1 0] [0x1 1 [8 2] 4.000000 ] (HELLO)
r 0.049727390 _24_ RTR  --- 0 WCETT 284 [0 ffffffff 8 800] ------- [8:255 -1:255 1 0] [0x1 1 [8 2] 4.000000 ] (HELLO)
r 0.049727390 _11_ RTR  --- 0 WCETT 284 [0 ffffffff 8 800] ------- [8:255 -1:255 1 0] [0x1 1 [8 2] 4.000000 ] (HELLO)
r 0.049727528 _26_ RTR  --- 0 WCETT 284 [0 ffffffff 8 800] ------- [8:255 -1:255 1 0] [0x1 1 [8 2] 4.000000 ] (HELLO)
r 0.049727528 _22_ RTR  --- 0 WCETT 284 [0 ffffffff 8 800] ------- [8:255 -1:255 1 0] [0x1 1 [8 2] 4.000000 ] (HELLO)
r 0.049727724 _2_ RTR  --- 0 WCETT 284 [0 ffffffff 8 800] ------- [8:255 -1:255 1 0] [0x1 1 [8 2] 4.000000 ] (HELLO)
r 0.049727724 _7_ RTR  --- 0 WCETT 284 [0 ffffffff 8 800] ------- [8:255 -1:255 1 0] [0x1 1 [8 2] 4.000000 ] (HELLO)
r 0.049727724 _14_ RTR  --- 0 WCETT 284 [0 ffffffff 8 800] ------- [8:255 -1:255 1 0] [0x1 1 [8 2] 4.000000 ] (HELLO)
r 0.049727802 _20_ RTR  --- 0 WCETT 284 [0 ffffffff 8 800] ------- [8:255 -1:255 1 0] [0x1 1 [8 2] 4.000000 ] (HELLO)
r 0.049727802 _10_ RTR  --- 0 WCETT 284 [0 ffffffff 8 800] ------- [8:255 -1:255 1 0] [0x1 1 [8 2] 4.000000 ] (HELLO)
r 0.049727802 _4_ RTR  --- 0 WCETT 284 [0 ffffffff 8 800] ------- [8:255 -1:255 1 0] [0x1 1 [8 2] 4.000000 ] (HELLO)
r 0.052785862 _24_ RTR  --- 0 WCETT 284 [0 ffffffff 1a 800] ------- [26:255 -1:255 1 0] [0x1 1 [26 2] 4.000000 ] (HELLO)
r 0.052785862 _4_ RTR  --- 0 WCETT 284 [0 ffffffff 1a 800] ------- [26:255 -1:255 1 0] [0x1 1 [26 2] 4.000000 ] (HELLO)
r 0.052785862 _5_ RTR  --- 0 WCETT 284 [0 ffffffff 1a 800] ------- [26:255 -1:255 1 0] [0x1 1 [26 2] 4.000000 ] (HELLO)
r 0.052786000 _7_ RTR  --- 0 WCETT 284 [0 ffffffff 1a 800] ------- [26:255 -1:255 1 0] [0x1 1 [26 2] 4.000000 ] (HELLO)
r 0.052786000 _1_ RTR  --- 0 WCETT 284 [0 ffffffff 1a 800] ------- [26:255 -1:255 1 0] [0x1 1 [26 2] 4.000000 ] (HELLO)
r 0.052786000 _2_ RTR  --- 0 WCETT 284 [0 ffffffff 1a 800] ------- [26:255 -1:255 1 0] [0x1 1 [26 2] 4.000000 ] (HELLO)
r 0.052786000 _8_ RTR  --- 0 WCETT 284 [0 ffffffff 1a 800] ------- [26:255 -1:255 1 0] [0x1 1 [26 2] 4.000000 ] (HELLO)
r 0.052786195 _22_ RTR  --- 0 WCETT 284 [0 ffffffff 1a 800] ------- [26:255 -1:255 1 0] [0x1 1 [26 2] 4.000000 ] (HELLO)
r 0.052786195 _27_ RTR  --- 0 WCETT 284 [0 ffffffff 1a 800] ------- [26:255 -1:255 1 0] [0x1 1 [26 2] 4.000000 ] (HELLO)
r 0.052786274 _10_ RTR  --- 0 WCETT 284 [0 ffffffff 1a 800] ------- [26:255 -1:255 1 0] [0x1 1 [26 2] 4.000000 ] (HELLO)