Sconfig 0.00000 tap: on snoop: rts? on errs? on
Sconfig 0.00000 salvage: on !bd replies? on
Sconfig 0.00000 grat error: on grat reply: on
Sconfig 0.00000 $reply for props: on ring 0 search: on
Sconfig 0.00000 using MOBICACHE
s 15.000000000 _0_ AGT  --- 0 cbr 512 [0 0 0 0] ------- [0:0 10:0 32 0] [0] 0 0
r 15.000000000 _0_ RTR  --- 0 cbr 512 [0 0 0 0] ------- [0:0 10:0 32 0] [0] 0 0
s 15.003166890 _0_ RTR  --- 1 DSR 32 [0 0 0 0] ------- [0:255 10:255 32 0] 1 [1 1] [0 1 0 0->0] [0 0 0 0->0]
r 15.004539556 _3_ RTR  --- 1 DSR 32 [0 ffffffff 0 800] ------- [0:255 10:255 32 0] 1 [1 1] [0 1 0 0->0] [0 0 0 0->0]
r 15.004539556 _1_ RTR  --- 1 DSR 32 [0 ffffffff 0 800] ------- [0:255 10:255 32 0] 1 [1 1] [0 1 0 0->0] [0 0 0 0->0]
s 15.046766784 _0_ RTR  --- 2 DSR 32 [0 0 0 0] ------- [0:255 10:255 32 0] 1 [1 2] [0 2 0 0->16] [0 0 0 0->0]
r 15.048059451 _3_ RTR  --- 2 DSR 32 [0 ffffffff 0 800] ------- [0:255 10:255 32 0] 1 [1 2] [0 2 0 0->16] [0 0 0 0->0]
r 15.048059451 _1_ RTR  --- 2 DSR 32 [0 ffffffff 0 800] ------- [0:255 10:255 32 0] 1 [1 2] [0 2 0 0->16] [0 0 0 0->0]
f 15.050923602 _1_ RTR  --- 2 DSR 48 [0 ffffffff 0 800] ------- [0:255 10:255 32 0] 2 [1 2] [0 2 0 0->16] [0 0 0 0->0]
r 15.052104268 _0_ RTR  --- 2 DSR 48 [0 ffffffff 1 800] ------- [0:255 10:255 32 0] 2 [1 2] [0 2 0 0->16] [0 0 0 0->0]
r 15.052104268 _4_ RTR  --- 2 DSR 48 [0 ffffffff 1 800] ------- [0:255 10:255 32 0] 2 [1 2] [0 2 0 0->16] [0 0 0 0->0]
r 15.052104268 _2_ RTR  --- 2 DSR 48 [0 ffffffff 1 800] ------- [0:255 10:255 32 0] 2 [1 2] [0 2 0 0->16] [0 0 0 0->0]
f 15.056527038 _3_ RTR  --- 2 DSR 48 [0 ffffffff 0 800] ------- [0:255 10:255 32 0] 2 [1 2] [0 2 0 0->16] [0 0 0 0->0]
r 15.057507371 _6_ RTR  --- 2 DSR 48 [0 ffffffff 3 800] ------- [0:255 10:255 32 0] 2 [1 2] [0 2 0 0->16] [0 0 0 0->0]
r 15.057507705 _0_ RTR  --- 2 DSR 48 [0 ffffffff 3 800] ------- [0:255 10:255 32 0] 2 [1 2] [0 2 0 0->16] [0 0 0 0->0]
r 15.057507705 _9_ RTR  --- 2 DSR 48 [0 ffffffff 3 800] ------- [0:255 10:255 32 0] 2 [1 2] [0 2 0 0->16] [0 0 0 0->0]
r 15.057507705 _4_ RTR  --- 2 DSR 48 [0 ffffffff 3 800] ------- [0:255 10:255 32 0] 2 [1 2] [0 2 0 0->16] [0 0 0 0->0]
r 15.057507783 _7_ RTR  --- 2 DSR 48 [0 ffffffff 3 800] ------- [0:255 10:255 32 0] 2 [1 2] [0 2 0 0->16] [0 0 0 0->0]
f 15.060514749 _4_ RTR  --- 2 DSR 68 [0 ffffffff 1 800] ------- [0:255 10:255 32 0] 3 [1 2] [0 2 0 0->16] [0 0 0 0->0]
f 15.060819633 _2_ RTR  --- 2 DSR 68 [0 ffffffff 1 800] ------- [0:255 10:255 32 0] 3 [1 2] [0 2 0 0->16] [0 0 0 0->0]
r 15.062035082 _7_ RTR  --- 2 DSR 68 [0 ffffffff 4 800] ------- [0:255 10:255 32 0] 3 [1 2] [0 2 0 0->16] [0 0 0 0->0]
r 15.062035416 _1_ RTR  --- 2 DSR 68 [0 ffffffff 4 800] ------- [0:255 10:255 32 0] 3 [1 2] [0 2 0 0->16] [0 0 0 0->0]
r 15.062035416 _3_ RTR  --- 2 DSR 68 [0 ffffffff 4 800] ------- [0:255 10:255 32 0] 3 [1 2] [0 2 0 0->16] [0 0 0 0->0]
r 15.062035416 _10_ RTR  --- 2 DSR 68 [0 ffffffff 4 800] ------- [0:255 10:255 32 0] 3 [1 2] [0 2 0 0->16] [0 0 0 0->0]
r 15.062035416 _5_ RTR  --- 2 DSR 68 [0 ffffffff 4 800] ------- [0:255 10:255 32 0] 3 [1 2] [0 2 0 0->16] [0 0 0 0->0]
r 15.062035494 _6_ RTR  --- 2 DSR 68 [0 ffffffff 4 800] ------- [0:255 10:255 32 0] 3 [1 2] [0 2 0 0->16] [0 0 0 0->0]
r 15.062035494 _8_ RTR  --- 2 DSR 68 [0 ffffffff 4 800] ------- [0:255 10:255 32 0] 3 [1 2] [0 2 0 0->16] [0 0 0 0->0]
f 15.062505627 _6_ RTR  --- 2 DSR 68 [0 ffffffff 3 800] ------- [0:255 10:255 32 0] 3 [1 2] [0 2 0 0->16] [0 0 0 0->0]
s 15.062532591 _10_ RTR  --- 3 DSR 60 [0 0 0 0] ------- [10:255 0:255 254 4] 4 [0 2] [1 2 4 0->10] [0 0 0 0->0]
f 15.062869701 _7_ RTR  --- 2 DSR 68 [0 ffffffff 3 800] ------- [0:255 10:255 32 0] 3 [1 2] [0 2 0 0->16] [0 0 0 0->0]
f 15.062986886 _5_ RTR  --- 2 DSR 92 [0 ffffffff 4 800] ------- [0:255 10:255 32 0] 4 [1 2] [0 2 0 0->16] [0 0 0 0->0]
r 15.063510359 _1_ RTR  --- 2 DSR 68 [0 ffffffff 2 800] ------- [0:255 10:255 32 0] 3 [1 2] [0 2 0 0->16] [0 0 0 0->0]
r 15.063510359 _5_ RTR  --- 2 DSR 68 [0 ffffffff 2 800] ------- [0:255 10:255 32 0] 3 [1 2] [0 2 0 0->16] [0 0 0 0->0]
f 15.064518433 _9_ RTR  --- 2 DSR 68 [0 ffffffff 3 800] ------- [0:255 10:255 32 0] 3 [1 2] [0 2 0 0->16] [0 0 0 0->0]
r 15.064732692 _8_ RTR  --- 2 DSR 92 [0 ffffffff 5 800] ------- [0:255 10:255 32 0] 4 [1 2] [0 2 0 0->16] [0 0 0 0->0]
r 15.064733025 _2_ RTR  --- 2 DSR 92 [0 ffffffff 5 800] ------- [0:255 10:255 32 0] 4 [1 2] [0 2 0 0->16] [0 0 0 0->0]
r 15.064733025 _4_ RTR  --- 2 DSR 92 [0 ffffffff 5 800] ------- [0:255 10:255 32 0] 4 [1 2] [0 2 0 0->16] [0 0 0 0->0]
r 15.064733025 _11_ RTR  --- 2 DSR 92 [0 ffffffff 5 800] ------- [0:255 10:255 32 0] 4 [1 2] [0 2 0 0->16] [0 0 0 0->0]
r 15.064733104 _7_ RTR  --- 2 DSR 92 [0 ffffffff 5 800] ------- [0:255 10:255 32 0] 4 [1 2] [0 2 0 0->16] [0 0 0 0->0]
r 15.066063437 _4_ RTR  --- 2 DSR 68 [0 ffffffff 7 800] ------- [0:255 10:255 32 0] 3 [1 2] [0 2 0 0->16] [0 0 0 0->0]
r 15.066063437 _10_ RTR  --- 2 DSR 68 [0 ffffffff 7 800] ------- [0:255 10:255 32 0] 3 [1 2] [0 2 0 0->16] [0 0 0 0->0]
r 15.066063771 _6_ RTR  --- 2 DSR 68 [0 ffffffff 7 800] ------- [0:255 10:255 32 0] 3 [1 2] [0 2 0 0->16] [0 0 0 0->0]
r 15.066063771 _8_ RTR  --- 2 DSR 68 [0 ffffffff 7 800] ------- [0:255 10:255 32 0] 3 [1 2] [0 2 0 0->16] [0 0 0 0->0]
r 15.066063849 _9_ RTR  --- 2 DSR 68 [0 ffffffff 7 800] ------- [0:255 10:255 32 0] 3 [1 2] [0 2 0 0->16] [0 0 0 0->0]
r 15.066063849 _3_ RTR  --- 2 DSR 68 [0 ffffffff 7 800] ------- [0:255 10:255 32 0] 3 [1 2] [0 2 0 0->16] [0 0 0 0->0]
r 15.066063849 _5_ RTR  --- 2 DSR 68 [0 ffffffff 7 800] ------- [0:255 10:255 32 0] 3 [1 2] [0 2 0 0->16] [0 0 0 0->0]
r 15.066063849 _11_ RTR  --- 2 DSR 68 [0 ffffffff 7 800] ------- [0:255 10:255 32 0] 3 [1 2] [0 2 0 0->16] [0 0 0 0->0]
r 15.067174104 _3_ RTR  --- 2 DSR 68 [0 ffffffff 6 800] ------- [0:255 10:255 32 0] 3 [1 2] [0 2 0 0->16] [0 0 0 0->0]
r 15.067174104 _9_ RTR  --- 2 DSR 68 [0 ffffffff 6 800] ------- [0:255 10:255 32 0] 3 [1 2] [0 2 0 0->16] [0 0 0 0->0]
r 15.067174437 _7_ RTR  --- 2 DSR 68 [0 ffffffff 6 800] ------- [0:255 10:255 32 0] 3 [1 2] [0 2 0 0->16] [0 0 0 0->0]
r 15.067174516 _4_ RTR  --- 2 DSR 68 [0 ffffffff 6 800] ------- [0:255 10:255 32 0] 3 [1 2] [0 2 0 0->16] [0 0 0 0->0]
r 15.067174516 _10_ RTR  --- 2 DSR 68 [0 ffffffff 6 800] ------- [0:255 10:255 32 0] 3 [1 2] [0 2 0 0->16] [0 0 0 0->0]
s 15.068011066 _0_ AGT  --- 6 cbr 512 [0 0 0 0] ------- [0:0 10:0 32 0] [1] 0 0
r 15.068011066 _0_ RTR  --- 6 cbr 512 [0 0 0 0] ------- [0:0 10:0 32 0] [1] 0 0
r 15.068244437 _6_ RTR  --- 2 DSR 68 [0 ffffffff 9 800] ------- [0:255 10:255 32 0] 3 [1 2] [0 2 0 0->16] [0 0 0 0->0]
r 15.068244771 _3_ RTR  --- 2 DSR 68 [0 ffffffff 9 800] ------- [0:255 10:255 32 0] 3 [1 2] [0 2 0 0->16] [0 0 0 0->0]
r 15.068244771 _10_ RTR  --- 2 DSR 68 [0 ffffffff 9 800] ------- [0:255 10:255 32 0] 3 [1 2] [0 2 0 0->16] [0 0 0 0->0]
r 15.068244849 _7_ RTR  --- 2 DSR 68 [0 ffffffff 9 800] ------- [0:255 10:255 32 0] 3 [1 2] [0 2 0 0->16] [0 0 0 0->0]
f 15.068552617 _8_ RTR  --- 2 DSR 92 [0 ffffffff 4 800] ------- [0:255 10:255 32 0] 4 [1 2] [0 2 0 0->16] [0 0 0 0->0]
s 15.069370965 _10_ RTR  --- 5 DSR 60 [0 0 0 0] ------- [10:255 0:255 254 6] 4 [0 2] [1 2 4 0->10] [0 0 0 0->0]
f 15.069462719 _11_ RTR  --- 2 DSR 120 [0 ffffffff 5 800] ------- [0:255 10:255 32 0] 5 [1 2] [0 2 0 0->16] [0 0 0 0->0]
r 15.070108771 _4_ RTR  --- 3 DSR 60 [13a 4 a 800] ------- [10:255 0:255 254 4] 4 [0 2] [1 2 4 0->10] [0 0 0 0->0]
f 15.070108771 _4_ RTR  --- 3 DSR 60 [13a 4 a 800] ------- [10:255 0:255 253 1] 4 [0 2] [1 2 4 0->10] [0 0 0 0->0]
s 15.070525182 _10_ RTR  --- 8 DSR 60 [0 0 0 0] ------- [10:255 0:255 254 9] 4 [0 2] [1 2 4 0->10] [0 0 0 0->0]
r 15.072106771 _1_ RTR  --- 3 DSR 60 [13a 1 4 800] ------- [10:255 0:255 253 1] 4 [0 2] [1 2 4 0->10] [0 0 0 0->0]
f 15.072106771 _1_ RTR  --- 3 DSR 60 [13a 1 4 800] ------- [10:255 0:255 252 0] 4 [0 2] [1 2 4 0->10] [0 0 0 0->0]
s 15.073279841 _10_ RTR  --- 4 DSR 60 [0 0 0 0] ------- [10:255 0:255 254 7] 4 [0 2] [1 2 4 0->10] [0 0 0 0->0]
r 15.074212595 _8_ RTR  --- 2 DSR 120 [0 ffffffff b 800] ------- [0:255 10:255 32 0] 5 [1 2] [0 2 0 0->16] [0 0 0 0->0]
r 15.074212928 _5_ RTR  --- 2 DSR 120 [0 ffffffff b 800] ------- [0:255 10:255 32 0] 5 [1 2] [0 2 0 0->16] [0 0 0 0->0]
r 15.074212928 _10_ RTR  --- 2 DSR 120 [0 ffffffff b 800] ------- [0:255 10:255 32 0] 5 [1 2] [0 2 0 0->16] [0 0 0 0->0]
r 15.074213007 _7_ RTR  --- 2 DSR 120 [0 ffffffff b 800] ------- [0:255 10:255 32 0] 5 [1 2] [0 2 0 0->16] [0 0 0 0->0]
r 15.075874928 _5_ RTR  --- 2 DSR 92 [0 ffffffff 8 800] ------- [0:255 10:255 32 0] 4 [1 2] [0 2 0 0->16] [0 0 0 0->0]
r 15.075874928 _11_ RTR  --- 2 DSR 92 [0 ffffffff 8 800] ------- [0:255 10:255 32 0] 4 [1 2] [0 2 0 0->16] [0 0 0 0->0]
r 15.075875261 _7_ RTR  --- 2 DSR 92 [0 ffffffff 8 800] ------- [0:255 10:255 32 0] 4 [1 2] [0 2 0 0->16] [0 0 0 0->0]
r 15.075875340 _10_ RTR  --- 2 DSR 92 [0 ffffffff 8 800] ------- [0:255 10:255 32 0] 4 [1 2] [0 2 0 0->16] [0 0 0 0->0]
r 15.075875340 _4_ RTR  --- 2 DSR 92 [0 ffffffff 8 800] ------- [0:255 10:255 32 0] 4 [1 2] [0 2 0 0->16] [0 0 0 0->0]
r 15.077579576 _6_ RTR  --- 5 DSR 60 [13a 6 a 800] ------- [10:255 0:255 254 6] 4 [0 2] [1 2 4 0->10] [0 0 0 0->0]
f 15.077579576 _6_ RTR  --- 5 DSR 60 [13a 6 a 800] ------- [10:255 0:255 253 3] 4 [0 2] [1 2 4 0->10] [0 0 0 0->0]
s 15.077944702 _10_ RTR  --- 10 DSR 68 [0 0 0 0] ------- [10:255 0:255 254 8] 5 [0 2] [1 2 5 0->10] [0 0 0 0->0]
r 15.079536576 _3_ RTR  --- 5 DSR 60 [13a 3 6 800] ------- [10:255 0:255 253 3] 4 [0 2] [1 2 4 0->10] [0 0 0 0->0]
f 15.079536576 _3_ RTR  --- 5 DSR 60 [13a 3 6 800] ------- [10:255 0:255 252 0] 4 [0 2] [1 2 4 0->10] [0 0 0 0->0]
s 15.081654823 _10_ RTR  --- 9 DSR 76 [0 0 0 0] ------- [10:255 0:255 254 11] 6 [0 2] [1 2 6 0->10] [0 0 0 0->0]
r 15.081899519 _0_ RTR  --- 3 DSR 60 [13a 0 1 800] ------- [10:255 0:255 252 0] 4 [0 2] [1 2 4 0->10] [0 0 0 0->0]
SFESTs 15.081899519 _0_ 0 [0 -> 10] 1(1) to 1 [0 |1 4 10 ]
SFESTs 15.081899519 _0_ 6 [0 -> 10] 1(1) to 1 [0 |1 4 10 ]
s 15.081899519 _0_ RTR  --- 0 cbr 556 [0 0 0 0] ------- [0:0 10:0 32 1] [0] 0 0
r 15.087805519 _1_ RTR  --- 0 cbr 556 [13a 1 0 800] ------- [0:0 10:0 32 1] [0] 1 0
f 15.087805519 _1_ RTR  --- 0 cbr 556 [13a 1 0 800] ------- [0:0 10:0 31 4] [0] 1 0
r 15.094171519 _4_ RTR  --- 0 cbr 556 [13a 4 1 800] ------- [0:0 10:0 31 4] [0] 2 0
f 15.094171519 _4_ RTR  --- 0 cbr 556 [13a 4 1 800] ------- [0:0 10:0 30 10] [0] 2 0
r 15.096259795 _0_ RTR  --- 5 DSR 60 [13a 0 3 800] ------- [10:255 0:255 252 0] 4 [0 2] [1 2 4 0->10] [0 0 0 0->0]
r 15.102630738 _10_ RTR  --- 0 cbr 556 [13a a 4 800] ------- [0:0 10:0 30 10] [0] 3 0
r 15.102630738 _10_ AGT  --- 0 cbr 512 [13a a 4 800] ------- [0:0 10:0 30 10] [0] 3 0
r 15.104747738 _7_ RTR  --- 4 DSR 60 [13a 7 a 800] ------- [10:255 0:255 254 7] 4 [0 2] [1 2 4 0->10] [0 0 0 0->0]
f 15.104747738 _7_ RTR  --- 4 DSR 60 [13a 7 a 800] ------- [10:255 0:255 253 3] 4 [0 2] [1 2 4 0->10] [0 0 0 0->0]
r 15.106765974 _3_ RTR  --- 4 DSR 60 [13a 3 7 800] ------- [10:255 0:255 253 3] 4 [0 2] [1 2 4 0->10] [0 0 0 0->0]
f 15.106765974 _3_ RTR  --- 4 DSR 60 [13a 3 7 800] ------- [10:255 0:255 252 0] 4 [0 2] [1 2 4 0->10] [0 0 0 0->0]
r 15.109203974 _0_ RTR  --- 4 DSR 60 [13a 0 3 800] ------- [10:255 0:255 252 0] 4 [0 2] [1 2 4 0->10] [0 0 0 0->0]
s 15.111899519 _0_ RTR  --- 6 cbr 556 [0 0 0 0] ------- [0:0 10:0 32 1] [1] 0 0
r 15.112015465 _11_ RTR  --- 9 DSR 76 [13a b a 800] ------- [10:255 0:255 254 11] 6 [0 2] [1 2 6 0->10] [0 0 0 0->0]
f 15.112015465 _11_ RTR  --- 9 DSR 76 [13a b a 800] ------- [10:255 0:255 253 5] 6 [0 2] [1 2 6 0->10] [0 0 0 0->0]
r 15.114158367 _8_ RTR  --- 10 DSR 68 [13a 8 a 800] ------- [10:255 0:255 254 8] 5 [0 2] [1 2 5 0->10] [0 0 0 0->0]
f 15.114158367 _8_ RTR  --- 10 DSR 68 [13a 8 a 800] ------- [10:255 0:255 253 4] 5 [0 2] [1 2 5 0->10] [0 0 0 0->0]
r 15.116304701 _5_ RTR  --- 9 DSR 76 [13a 5 b 800] ------- [10:255 0:255 253 5] 6 [0 2] [1 2 6 0->10] [0 0 0 0->0]
f 15.116304701 _5_ RTR  --- 9 DSR 76 [13a 5 b 800] ------- [10:255 0:255 252 4] 6 [0 2] [1 2 6 0->10] [0 0 0 0->0]
r 15.118494349 _4_ RTR  --- 9 DSR 76 [13a 4 5 800] ------- [10:255 0:255 252 4] 6 [0 2] [1 2 6 0->10] [0 0 0 0->0]
f 15.118494349 _4_ RTR  --- 9 DSR 76 [13a 4 5 800] ------- [10:255 0:255 251 1] 6 [0 2] [1 2 6 0->10] [0 0 0 0->0]
r 15.120560349 _1_ RTR  --- 9 DSR 76 [13a 1 4 800] ------- [10:255 0:255 251 1] 6 [0 2] [1 2 6 0->10] [0 0 0 0->0]
f 15.120560349 _1_ RTR  --- 9 DSR 76 [13a 1 4 800] ------- [10:255 0:255 250 0] 6 [0 2] [1 2 6 0->10] [0 0 0 0->0]
r 15.122946349 _0_ RTR  --- 9 DSR 76 [13a 0 1 800] ------- [10:255 0:255 250 0] 6 [0 2] [1 2 6 0->10] [0 0 0 0->0]
r 15.129212349 _1_ RTR  --- 6 cbr 556 [13a 1 0 800] ------- [0:0 10:0 32 1] [1] 1 0
f 15.129212349 _1_ RTR  --- 6 cbr 556 [13a 1 0 800] ------- [0:0 10:0 31 4] [1] 1 0
s 15.130749044 _0_ AGT  --- 11 cbr 512 [0 0 0 0] ------- [0:0 10:0 32 0] [2] 0 0
r 15.130749044 _0_ RTR  --- 11 cbr 512 [0 0 0 0] ------- [0:0 10:0 32 0] [2] 0 0
SFESTs 15.130749044 _0_ 11 [0 -> 10] 1(1) to 1 [0 |1 4 10 ]
s 15.130749044 _0_ RTR  --- 11 cbr 556 [0 0 0 0] ------- [0:0 10:0 32 1] [2] 0 0
r 15.135118349 _4_ RTR  --- 6 cbr 556 [13a 4 1 800] ------- [0:0 10:0 31 4] [1] 2 0
f 15.135118349 _4_ RTR  --- 6 cbr 556 [13a 4 1 800] ------- [0:0 10:0 30 10] [1] 2 0
r 15.141224349 _10_ RTR  --- 6 cbr 556 [13a a 4 800] ------- [0:0 10:0 30 10] [1] 3 0
r 15.141224349 _10_ AGT  --- 6 cbr 512 [13a a 4 800] ------- [0:0 10:0 30 10] [1] 3 0
r 15.143387330 _4_ RTR  --- 10 DSR 68 [13a 4 8 800] ------- [10:255 0:255 253 4] 5 [0 2] [1 2 5 0->10] [0 0 0 0->0]
f 15.143387330 _4_ RTR  --- 10 DSR 68 [13a 4 8 800] ------- [10:255 0:255 252 1] 5 [0 2] [1 2 5 0->10] [0 0 0 0->0]
r 15.145485997 _9_ RTR  --- 8 DSR 60 [13a 9 a 800] ------- [10:255 0:255 254 9] 4 [0 2] [1 2 4 0->10] [0 0 0 0->0]
f 15.145485997 _9_ RTR  --- 8 DSR 60 [13a 9 a 800] ------- [10:255 0:255 253 3] 4 [0 2] [1 2 4 0->10] [0 0 0 0->0]
r 15.147583997 _3_ RTR  --- 8 DSR 60 [13a 3 9 800] ------- [10:255 0:255 253 3] 4 [0 2] [1 2 4 0->10] [0 0 0 0->0]
f 15.147583997 _3_ RTR  --- 8 DSR 60 [13a 3 9 800] ------- [10:255 0:255 252 0] 4 [0 2] [1 2 4 0->10] [0 0 0 0->0]
r 15.149776273 _1_ RTR  --- 10 DSR 68 [13a 1 4 800] ------- [10:255 0:255 252 1] 5 [0 2] [1 2 5 0->10] [0 0 0 0->0]
f 15.149776273 _1_ RTR  --- 10 DSR 68 [13a 1 4 800] ------- [10:255 0:255 251 0] 5 [0 2] [1 2 5 0->10] [0 0 0 0->0]
r 15.155772549 _1_ RTR  --- 11 cbr 556 [13a 1 0 800] ------- [0:0 10:0 32 1] [2] 1 0
f 15.155772549 _1_ RTR  --- 11 cbr 556 [13a 1 0 800] ------- [0:0 10:0 31 4] [2] 1 0
r 15.158254549 _0_ RTR  --- 10 DSR 68 [13a 0 1 800] ------- [10:255 0:255 251 0] 5 [0 2] [1 2 5 0->10] [0 0 0 0->0]
r 15.160442825 _0_ RTR  --- 8 DSR 60 [13a 0 3 800] ------- [10:255 0:255 252 0] 4 [0 2] [1 2 4 0->10] [0 0 0 0->0]
r 15.166499101 _4_ RTR  --- 11 cbr 556 [13a 4 1 800] ------- [0:0 10:0 31 4] [2] 2 0
f 15.166499101 _4_ RTR  --- 11 cbr 556 [13a 4 1 800] ------- [0:0 10:0 30 10] [2] 2 0
r 15.172705101 _10_ RTR  --- 11 cbr 556 [13a a 4 800] ------- [0:0 10:0 30 10] [2] 3 0
r 15.172705101 _10_ AGT  --- 11 cbr 512 [13a a 4 800] ------- [0:0 10:0 30 10] [2] 3 0
s 15.183757767 _0_ AGT  --- 12 cbr 512 [0 0 0 0] ------- [0:0 10:0 32 0] [3] 0 0
r 15.183757767 _0_ RTR  --- 12 cbr 512 [0 0 0 0] ------- [0:0 10:0 32 0] [3] 0 0
SFs 15.183757767 _0_ 12 [0 -> 10] 1(0) to 1 
s 15.183757767 _0_ RTR  --- 12 cbr 532 [0 0 0 0] ------- [0:0 10:0 32 1] [3] 0 0
r 15.189607767 _1_ RTR  --- 12 cbr 532 [13a 1 0 800] ------- [0:0 10:0 32 1] [3] 1 0
SFf 15.189607767 _1_ 12 [0 -> 10] 1 to 4
f 15.189607767 _1_ RTR  --- 12 cbr 532 [13a 1 0 800] ------- [0:0 10:0 31 4] [3] 1 0
r 15.195361767 _4_ RTR  --- 12 cbr 532 [13a 4 1 800] ------- [0:0 10:0 31 4] [3] 2 0
SFf 15.195361767 _4_ 12 [0 -> 10] 1 to 10
f 15.195361767 _4_ RTR  --- 12 cbr 532 [13a 4 1 800] ------- [0:0 10:0 30 10] [3] 2 0
r 15.201235767 _10_ RTR  --- 12 cbr 532 [13a a 4 800] ------- [0:0 10:0 30 10] [3] 3 0
r 15.201235767 _10_ AGT  --- 12 cbr 512 [13a a 4 800] ------- [0:0 10:0 30 10] [3] 3 0
s 15.214899685 _0_ AGT  --- 13 cbr 512 [0 0 0 0] ------- [0:0 10:0 32 0] [4] 0 0
r 15.214899685 _0_ RTR  --- 13 cbr 512 [0 0 0 0] ------- [0:0 10:0 32 0] [4] 0 0
SFs 15.214899685 _0_ 13 [0 -> 10] 1(0) to 1 
s 15.214899685 _0_ RTR  --- 13 cbr 532 [0 0 0 0] ------- [0:0 10:0 32 1] [4] 0 0
r 15.220949685 _1_ RTR  --- 13 cbr 532 [13a 1 0 800] ------- [0:0 10:0 32 1] [4] 1 0
SFf 15.220949685 _1_ 13 [0 -> 10] 1 to 4
f 15.220949685 _1_ RTR  --- 13 cbr 532 [13a 1 0 800] ------- [0:0 10:0 31 4] [4] 1 0
r 15.227163685 _4_ RTR  --- 13 cbr 532 [13a 4 1 800] ------- [0:0 10:0 31 4] [4] 2 0
SFf 15.227163685 _4_ 13 [0 -> 10] 1 to 10
f 15.227163685 _4_ RTR  --- 13 cbr 532 [13a 4 1 800] ------- [0:0 10:0 30 10] [4] 2 0
r 15.233097685 _10_ RTR  --- 13 cbr 532 [13a a 4 800] ------- [0:0 10:0 30 10] [4] 3 0
r 15.233097685 _10_ AGT  --- 13 cbr 512 [13a a 4 800] ------- [0:0 10:0 30 10] [4] 3 0
s 15.246152620 _0_ AGT  --- 14 cbr 512 [0 0 0 0] ------- [0:0 10:0 32 0] [5] 0 0
r 15.246152620 _0_ RTR  --- 14 cbr 512 [0 0 0 0] ------- [0:0 10:0 32 0] [5] 0 0
SFs 15.246152620 _0_ 14 [0 -> 10] 1(0) to 1 
s 15.246152620 _0_ RTR  --- 14 cbr 532 [0 0 0 0] ------- [0:0 10:0 32 1] [5] 0 0
r 15.251622620 _1_ RTR  --- 14 cbr 532 [13a 1 0 800] ------- [0:0 10:0 32 1] [5] 1 0
SFf 15.251622620 _1_ 14 [0 -> 10] 1 to 4
f 15.251622620 _1_ RTR  --- 14 cbr 532 [13a 1 0 800] ------- [0:0 10:0 31 4] [5] 1 0
r 15.257336620 _4_ RTR  --- 14 cbr 532 [13a 4 1 800] ------- [0:0 10:0 31 4] [5] 2 0
SFf 15.257336620 _4_ 14 [0 -> 10] 1 to 10
f 15.257336620 _4_ RTR  --- 14 cbr 532 [13a 4 1 800] ------- [0:0 10:0 30 10] [5] 2 0
r 15.263230620 _10_ RTR  --- 14 cbr 532 [13a a 4 800] ------- [0:0 10:0 30 10] [5] 3 0
r 15.263230620 _10_ AGT  --- 14 cbr 512 [13a a 4 800] ------- [0:0 10:0 30 10] [5] 3 0
s 15.319008707 _0_ AGT  --- 15 cbr 512 [0 0 0 0] ------- [0:0 10:0 32 0] [6] 0 0
r 15.319008707 _0_ RTR  --- 15 cbr 512 [0 0 0 0] ------- [0:0 10:0 32 0] [6] 0 0
SFs 15.319008707 _0_ 15 [0 -> 10] 1(0) to 1 
s 15.319008707 _0_ RTR  --- 15 cbr 532 [0 0 0 0] ------- [0:0 10:0 32 1] [6] 0 0
r 15.324938707 _1_ RTR  --- 15 cbr 532 [13a 1 0 800] ------- [0:0 10:0 32 1] [6] 1 0
SFf 15.324938707 _1_ 15 [0 -> 10] 1 to 4
f 15.324938707 _1_ RTR  --- 15 cbr 532 [13a 1 0 800] ------- [0:0 10:0 31 4] [6] 1 0
r 15.331092707 _4_ RTR  --- 15 cbr 532 [13a 4 1 800] ------- [0:0 10:0 31 4] [6] 2 0
SFf 15.331092707 _4_ 15 [0 -> 10] 1 to 10
f 15.331092707 _4_ RTR  --- 15 cbr 532 [13a 4 1 800] ------- [0:0 10:0 30 10] [6] 2 0
r 15.337226707 _10_ RTR  --- 15 cbr 532 [13a a 4 800] ------- [0:0 10:0 30 10] [6] 3 0
r 15.337226707 _10_ AGT  --- 15 cbr 512 [13a a 4 800] ------- [0:0 10:0 30 10] [6] 3 0
s 15.389370102 _0_ AGT  --- 16 cbr 512 [0 0 0 0] ------- [0:0 10:0 32 0] [7] 0 0
r 15.389370102 _0_ RTR  --- 16 cbr 512 [0 0 0 0] ------- [0:0 10:0 32 0] [7] 0 0
SFs 15.389370102 _0_ 16 [0 -> 10] 1(0) to 1 
s 15.389370102 _0_ RTR  --- 16 cbr 532 [0 0 0 0] ------- [0:0 10:0 32 1] [7] 0 0
r 15.395380102 _1_ RTR  --- 16 cbr 532 [13a 1 0 800] ------- [0:0 10:0 32 1] [7] 1 0
SFf 15.395380102 _1_ 16 [0 -> 10] 1 to 4
f 15.395380102 _1_ RTR  --- 16 cbr 532 [13a 1 0 800] ------- [0:0 10:0 31 4] [7] 1 0
r 15.401114102 _4_ RTR  --- 16 cbr 532 [13a 4 1 800] ------- [0:0 10:0 31 4] [7] 2 0
SFf 15.401114102 _4_ 16 [0 -> 10] 1 to 10
f 15.401114102 _4_ RTR  --- 16 cbr 532 [13a 4 1 800] ------- [0:0 10:0 30 10] [7] 2 0
r 15.407208102 _10_ RTR  --- 16 cbr 532 [13a a 4 800] ------- [0:0 10:0 30 10] [7] 3 0
r 15.407208102 _10_ AGT  --- 16 cbr 512 [13a a 4 800] ------- [0:0 10:0 30 10] [7] 3 0
s 15.425771406 _0_ AGT  --- 17 cbr 512 [0 0 0 0] ------- [0:0 10:0 32 0] [8] 0 0
r 15.425771406 _0_ RTR  --- 17 cbr 512 [0 0 0 0] ------- [0:0 10:0 32 0] [8] 0 0
SFs 15.425771406 _0_ 17 [0 -> 10] 1(0) to 1 
s 15.425771406 _0_ RTR  --- 17 cbr 532 [0 0 0 0] ------- [0:0 10:0 32 1] [8] 0 0
r 15.431701406 _1_ RTR  --- 17 cbr 532 [13a 1 0 800] ------- [0:0 10:0 32 1] [8] 1 0
SFf 15.431701406 _1_ 17 [0 -> 10] 1 to 4
f 15.431701406 _1_ RTR  --- 17 cbr 532 [13a 1 0 800] ------- [0:0 10:0 31 4] [8] 1 0
r 15.437875406 _4_ RTR  --- 17 cbr 532 [13a 4 1 800] ------- [0:0 10:0 31 4] [8] 2 0
SFf 15.437875406 _4_ 17 [0 -> 10] 1 to 10
f 15.437875406 _4_ RTR  --- 17 cbr 532 [13a 4 1 800] ------- [0:0 10:0 30 10] [8] 2 0
r 15.444089406 _10_ RTR  --- 17 cbr 532 [13a a 4 800] ------- [0:0 10:0 30 10] [8] 3 0
r 15.444089406 _10_ AGT  --- 17 cbr 512 [13a a 4 800] ------- [0:0 10:0 30 10] [8] 3 0
s 15.460156470 _0_ AGT  --- 18 cbr 512 [0 0 0 0] ------- [0:0 10:0 32 0] [9] 0 0
r 15.460156470 _0_ RTR  --- 18 cbr 512 [0 0 0 0] ------- [0:0 10:0 32 0] [9] 0 0
SFs 15.460156470 _0_ 18 [0 -> 10] 1(0) to 1 
s 15.460156470 _0_ RTR  --- 18 cbr 532 [0 0 0 0] ------- [0:0 10:0 32 1] [9] 0 0
r 15.465926470 _1_ RTR  --- 18 cbr 532 [13a 1 0 800] ------- [0:0 10:0 32 1] [9] 1 0
SFf 15.465926470 _1_ 18 [0 -> 10] 1 to 4
f 15.465926470 _1_ RTR  --- 18 cbr 532 [13a 1 0 800] ------- [0:0 10:0 31 4] [9] 1 0
r 15.472120470 _4_ RTR  --- 18 cbr 532 [13a 4 1 800] ------- [0:0 10:0 31 4] [9] 2 0
SFf 15.472120470 _4_ 18 [0 -> 10] 1 to 10
f 15.472120470 _4_ RTR  --- 18 cbr 532 [13a 4 1 800] ------- [0:0 10:0 30 10] [9] 2 0
r 15.478334470 _10_ RTR  --- 18 cbr 532 [13a a 4 800] ------- [0:0 10:0 30 10] [9] 3 0
r 15.478334470 _10_ AGT  --- 18 cbr 512 [13a a 4 800] ------- [0:0 10:0 30 10] [9] 3 0
s 15.529599720 _0_ AGT  --- 19 cbr 512 [0 0 0 0] ------- [0:0 10:0 32 0] [10] 0 0
r 15.529599720 _0_ RTR  --- 19 cbr 512 [0 0 0 0] ------- [0:0 10:0 32 0] [10] 0 0
SFs 15.529599720 _0_ 19 [0 -> 10] 1(0) to 1 
s 15.529599720 _0_ RTR  --- 19 cbr 532 [0 0 0 0] ------- [0:0 10:0 32 1] [10] 0 0
r 15.535409720 _1_ RTR  --- 19 cbr 532 [13a 1 0 800] ------- [0:0 10:0 32 1] [10] 1 0
SFf 15.535409720 _1_ 19 [0 -> 10] 1 to 4
f 15.535409720 _1_ RTR  --- 19 cbr 532 [13a 1 0 800] ------- [0:0 10:0 31 4] [10] 1 0
r 15.541583720 _4_ RTR  --- 19 cbr 532 [13a 4 1 800] ------- [0:0 10:0 31 4] [10] 2 0
SFf 15.541583720 _4_ 19 [0 -> 10] 1 to 10
f 15.541583720 _4_ RTR  --- 19 cbr 532 [13a 4 1 800] ------- [0:0 10:0 30 10] [10] 2 0
r 15.547777720 _10_ RTR  --- 19 cbr 532 [13a a 4 800] ------- [0:0 10:0 30 10] [10] 3 0
r 15.547777720 _10_ AGT  --- 19 cbr 512 [13a a 4 800] ------- [0:0 10:0 30 10] [10] 3 0
s 15.583208147 _0_ AGT  --- 20 cbr 512 [0 0 0 0] ------- [0:0 10:0 32 0] [11] 0 0
r 15.583208147 _0_ RTR  --- 20 cbr 512 [0 0 0 0] ------- [0:0 10:0 32 0] [11] 0 0
SFs 15.583208147 _0_ 20 [0 -> 10] 1(0) to 1 
s 15.583208147 _0_ RTR  --- 20 cbr 532 [0 0 0 0] ------- [0:0 10:0 32 1] [11] 0 0
r 15.588878147 _1_ RTR  --- 20 cbr 532 [13a 1 0 800] ------- [0:0 10:0 32 1] [11] 1 0
SFf 15.588878147 _1_ 20 [0 -> 10] 1 to 4
f 15.588878147 _1_ RTR  --- 20 cbr 532 [13a 1 0 800] ------- [0:0 10:0 31 4] [11] 1 0
r 15.594692147 _4_ RTR  --- 20 cbr 532 [13a 4 1 800] ------- [0:0 10:0 31 4] [11] 2 0
SFf 15.594692147 _4_ 20 [0 -> 10] 1 to 10
f 15.594692147 _4_ RTR  --- 20 cbr 532 [13a 4 1 800] ------- [0:0 10:0 30 10] [11] 2 0
r 15.600706147 _10_ RTR  --- 20 cbr 532 [13a a 4 800] ------- [0:0 10:0 30 10] [11] 3 0
r 15.600706147 _10_ AGT  --- 20 cbr 512 [13a a 4 800] ------- [0:0 10:0 30 10] [11] 3 0
s 15.627036508 _0_ AGT  --- 21 cbr 512 [0 0 0 0] ------- [0:0 10:0 32 0] [12] 0 0
r 15.627036508 _0_ RTR  --- 21 cbr 512 [0 0 0 0] ------- [0:0 10:0 32 0] [12] 0 0
SFs 15.627036508 _0_ 21 [0 -> 10] 1(0) to 1 
s 15.627036508 _0_ RTR  --- 21 cbr 532 [0 0 0 0] ------- [0:0 10:0 32 1] [12] 0 0
r 15.632826508 _1_ RTR  --- 21 cbr 532 [13a 1 0 800] ------- [0:0 10:0 32 1] [12] 1 0
SFf 15.632826508 _1_ 21 [0 -> 10] 1 to 4
f 15.632826508 _1_ RTR  --- 21 cbr 532 [13a 1 0 800] ------- [0:0 10:0 31 4] [12] 1 0
r 15.638940508 _4_ RTR  --- 21 cbr 532 [13a 4 1 800] ------- [0:0 10:0 31 4] [12] 2 0
SFf 15.638940508 _4_ 21 [0 -> 10] 1 to 10
f 15.638940508 _4_ RTR  --- 21 cbr 532 [13a 4 1 800] ------- [0:0 10:0 30 10] [12] 2 0
r 15.644734508 _10_ RTR  --- 21 cbr 532 [13a a 4 800] ------- [0:0 10:0 30 10] [12] 3 0
r 15.644734508 _10_ AGT  --- 21 cbr 512 [13a a 4 800] ------- [0:0 10:0 30 10] [12] 3 0
s 15.660067203 _0_ AGT  --- 22 cbr 512 [0 0 0 0] ------- [0:0 10:0 32 0] [13] 0 0
r 15.660067203 _0_ RTR  --- 22 cbr 512 [0 0 0 0] ------- [0:0 10:0 32 0] [13] 0 0
SFs 15.660067203 _0_ 22 [0 -> 10] 1(0) to 1 
s 15.660067203 _0_ RTR  --- 22 cbr 532 [0 0 0 0] ------- [0:0 10:0 32 1] [13] 0 0
r 15.665637203 _1_ RTR  --- 22 cbr 532 [13a 1 0 800] ------- [0:0 10:0 32 1] [13] 1 0
SFf 15.665637203 _1_ 22 [0 -> 10] 1 to 4
f 15.665637203 _1_ RTR  --- 22 cbr 532 [13a 1 0 800] ------- [0:0 10:0 31 4] [13] 1 0
r 15.671691203 _4_ RTR  --- 22 cbr 532 [13a 4 1 800] ------- [0:0 10:0 31 4] [13] 2 0
SFf 15.671691203 _4_ 22 [0 -> 10] 1 to 10
f 15.671691203 _4_ RTR  --- 22 cbr 532 [13a 4 1 800] ------- [0:0 10:0 30 10] [13] 2 0
r 15.677825203 _10_ RTR  --- 22 cbr 532 [13a a 4 800] ------- [0:0 10:0 30 10] [13] 3 0
r 15.677825203 _10_ AGT  --- 22 cbr 512 [13a a 4 800] ------- [0:0 10:0 30 10] [13] 3 0
s 15.714386571 _0_ AGT  --- 23 cbr 512 [0 0 0 0] ------- [0:0 10:0 32 0] [14] 0 0
r 15.714386571 _0_ RTR  --- 23 cbr 512 [0 0 0 0] ------- [0:0 10:0 32 0] [14] 0 0
SFs 15.714386571 _0_ 23 [0 -> 10] 1(0) to 1 
s 15.714386571 _0_ RTR  --- 23 cbr 532 [0 0 0 0] ------- [0:0 10:0 32 1] [14] 0 0
r 15.719916571 _1_ RTR  --- 23 cbr 532 [13a 1 0 800] ------- [0:0 10:0 32 1] [14] 1 0
SFf 15.719916571 _1_ 23 [0 -> 10] 1 to 4
f 15.719916571 _1_ RTR  --- 23 cbr 532 [13a 1 0 800] ------- [0:0 10:0 31 4] [14] 1 0
r 15.725970571 _4_ RTR  --- 23 cbr 532 [13a 4 1 800] ------- [0:0 10:0 31 4] [14] 2 0
SFf 15.725970571 _4_ 23 [0 -> 10] 1 to 10
f 15.725970571 _4_ RTR  --- 23 cbr 532 [13a 4 1 800] ------- [0:0 10:0 30 10] [14] 2 0
r 15.732224571 _10_ RTR  --- 23 cbr 532 [13a a 4 800] ------- [0:0 10:0 30 10] [14] 3 0
r 15.732224571 _10_ AGT  --- 23 cbr 512 [13a a 4 800] ------- [0:0 10:0 30 10] [14] 3 0
s 15.765807346 _0_ AGT  --- 24 cbr 512 [0 0 0 0] ------- [0:0 10:0 32 0] [15] 0 0
r 15.765807346 _0_ RTR  --- 24 cbr 512 [0 0 0 0] ------- [0:0 10:0 32 0] [15] 0 0
SFs 15.765807346 _0_ 24 [0 -> 10] 1(0) to 1 
s 15.765807346 _0_ RTR  --- 24 cbr 532 [0 0 0 0] ------- [0:0 10:0 32 1] [15] 0 0
r 15.771517346 _1_ RTR  --- 24 cbr 532 [13a 1 0 800] ------- [0:0 10:0 32 1] [15] 1 0
SFf 15.771517346 _1_ 24 [0 -> 10] 1 to 4
f 15.771517346 _1_ RTR  --- 24 cbr 532 [13a 1 0 800] ------- [0:0 10:0 31 4] [15] 1 0
r 15.777671346 _4_ RTR  --- 24 cbr 532 [13a 4 1 800] ------- [0:0 10:0 31 4] [15] 2 0
SFf 15.777671346 _4_ 24 [0 -> 10] 1 to 10
f 15.777671346 _4_ RTR  --- 24 cbr 532 [13a 4 1 800] ------- [0:0 10:0 30 10] [15] 2 0
r 15.783725346 _10_ RTR  --- 24 cbr 532 [13a a 4 800] ------- [0:0 10:0 30 10] [15] 3 0
r 15.783725346 _10_ AGT  --- 24 cbr 512 [13a a 4 800] ------- [0:0 10:0 30 10] [15] 3 0
s 15.835826381 _0_ AGT  --- 25 cbr 512 [0 0 0 0] ------- [0:0 10:0 32 0] [16] 0 0
r 15.835826381 _0_ RTR  --- 25 cbr 512 [0 0 0 0] ------- [0:0 10:0 32 0] [16] 0 0
SFs 15.835826381 _0_ 25 [0 -> 10] 1(0) to 1 
s 15.835826381 _0_ RTR  --- 25 cbr 532 [0 0 0 0] ------- [0:0 10:0 32 1] [16] 0 0
r 15.841676381 _1_ RTR  --- 25 cbr 532 [13a 1 0 800] ------- [0:0 10:0 32 1] [16] 1 0
SFf 15.841676381 _1_ 25 [0 -> 10] 1 to 4
f 15.841676381 _1_ RTR  --- 25 cbr 532 [13a 1 0 800] ------- [0:0 10:0 31 4] [16] 1 0
r 15.847630381 _4_ RTR  --- 25 cbr 532 [13a 4 1 800] ------- [0:0 10:0 31 4] [16] 2 0
SFf 15.847630381 _4_ 25 [0 -> 10] 1 to 10
f 15.847630381 _4_ RTR  --- 25 cbr 532 [13a 4 1 800] ------- [0:0 10:0 30 10] [16] 2 0
r 15.853584381 _10_ RTR  --- 25 cbr 532 [13a a 4 800] ------- [0:0 10:0 30 10] [16] 3 0
r 15.853584381 _10_ AGT  --- 25 cbr 512 [13a a 4 800] ------- [0:0 10:0 30 10] [16] 3 0
s 15.897597059 _0_ AGT  --- 26 cbr 512 [0 0 0 0] ------- [0:0 10:0 32 0] [17] 0 0
r 15.897597059 _0_ RTR  --- 26 cbr 512 [0 0 0 0] ------- [0:0 10:0 32 0] [17] 0 0
SFs 15.897597059 _0_ 26 [0 -> 10] 1(0) to 1 
s 15.897597059 _0_ RTR  --- 26 cbr 532 [0 0 0 0] ------- [0:0 10:0 32 1] [17] 0 0
r 15.903287059 _1_ RTR  --- 26 cbr 532 [13a 1 0 800] ------- [0:0 10:0 32 1] [17] 1 0
SFf 15.903287059 _1_ 26 [0 -> 10] 1 to 4
f 15.903287059 _1_ RTR  --- 26 cbr 532 [13a 1 0 800] ------- [0:0 10:0 31 4] [17] 1 0
r 15.909261059 _4_ RTR  --- 26 cbr 532 [13a 4 1 800] ------- [0:0 10:0 31 4] [17] 2 0
SFf 15.909261059 _4_ 26 [0 -> 10] 1 to 10
f 15.909261059 _4_ RTR  --- 26 cbr 532 [13a 4 1 800] ------- [0:0 10:0 30 10] [17] 2 0
r 15.915115059 _10_ RTR  --- 26 cbr 532 [13a a 4 800] ------- [0:0 10:0 30 10] [17] 3 0
r 15.915115059 _10_ AGT  --- 26 cbr 512 [13a a 4 800] ------- [0:0 10:0 30 10] [17] 3 0
s 15.949789054 _0_ AGT  --- 27 cbr 512 [0 0 0 0] ------- [0:0 10:0 32 0] [18] 0 0
r 15.949789054 _0_ RTR  --- 27 cbr 512 [0 0 0 0] ------- [0:0 10:0 32 0] [18] 0 0
SFs 15.949789054 _0_ 27 [0 -> 10] 1(0) to 1 
s 15.949789054 _0_ RTR  --- 27 cbr 532 [0 0 0 0] ------- [0:0 10:0 32 1] [18] 0 0
r 15.955399054 _1_ RTR  --- 27 cbr 532 [13a 1 0 800] ------- [0:0 10:0 32 1] [18] 1 0
SFf 15.955399054 _1_ 27 [0 -> 10] 1 to 4
f 15.955399054 _1_ RTR  --- 27 cbr 532 [13a 1 0 800] ------- [0:0 10:0 31 4] [18] 1 0
r 15.961213054 _4_ RTR  --- 27 cbr 532 [13a 4 1 800] ------- [0:0 10:0 31 4] [18] 2 0
SFf 15.961213054 _4_ 27 [0 -> 10] 1 to 10
f 15.961213054 _4_ RTR  --- 27 cbr 532 [13a 4 1 800] ------- [0:0 10:0 30 10] [18] 2 0
r 15.967487054 _10_ RTR  --- 27 cbr 532 [13a a 4 800] ------- [0:0 10:0 30 10] [18] 3 0
r 15.967487054 _10_ AGT  --- 27 cbr 512 [13a a 4 800] ------- [0:0 10:0 30 10] [18] 3 0
s 16.022788735 _0_ AGT  --- 28 cbr 512 [0 0 0 0] ------- [0:0 10:0 32 0] [19] 0 0
r 16.022788735 _0_ RTR  --- 28 cbr 512 [0 0 0 0] ------- [0:0 10:0 32 0] [19] 0 0
SFs 16.022788735 _0_ 28 [0 -> 10] 1(0) to 1 
s 16.022788735 _0_ RTR  --- 28 cbr 532 [0 0 0 0] ------- [0:0 10:0 32 1] [19] 0 0
r 16.028418735 _1_ RTR  --- 28 cbr 532 [13a 1 0 800] ------- [0:0 10:0 32 1] [19] 1 0
SFf 16.028418735 _1_ 28 [0 -> 10] 1 to 4
f 16.028418735 _1_ RTR  --- 28 cbr 532 [13a 1 0 800] ------- [0:0 10:0 31 4] [19] 1 0
r 16.034452735 _4_ RTR  --- 28 cbr 532 [13a 4 1 800] ------- [0:0 10:0 31 4] [19] 2 0
SFf 16.034452735 _4_ 28 [0 -> 10] 1 to 10