Sconfig 0.00000 tap: on snoop: rts? on errs? on
Sconfig 0.00000 salvage: on !bd replies? on
Sconfig 0.00000 grat error: on grat reply: on
Sconfig 0.00000 $reply for props: on ring 0 search: on
Sconfig 0.00000 using MOBICACHE
s 15.000000000 _0_ AGT  --- 0 cbr 512 [0 0 0 0] ------- [0:0 16:0 32 0] [0] 0 0
r 15.000000000 _0_ RTR  --- 0 cbr 512 [0 0 0 0] ------- [0:0 16:0 32 0] [0] 0 0
s 15.001436295 _0_ RTR  --- 1 DSR 32 [0 0 0 0] ------- [0:255 16:255 32 0] 1 [1 1] [0 1 0 0->0] [0 0 0 0->0]
r 15.002608628 _3_ RTR  --- 1 DSR 32 [0 ffffffff 0 800] ------- [0:255 16:255 32 0] 1 [1 1] [0 1 0 0->0] [0 0 0 0->0]
r 15.002608962 _6_ RTR  --- 1 DSR 32 [0 ffffffff 0 800] ------- [0:255 16:255 32 0] 1 [1 1] [0 1 0 0->0] [0 0 0 0->0]
r 15.002608962 _1_ RTR  --- 1 DSR 32 [0 ffffffff 0 800] ------- [0:255 16:255 32 0] 1 [1 1] [0 1 0 0->0] [0 0 0 0->0]
r 15.002609041 _4_ RTR  --- 1 DSR 32 [0 ffffffff 0 800] ------- [0:255 16:255 32 0] 1 [1 1] [0 1 0 0->0] [0 0 0 0->0]
s 15.042381083 _0_ RTR  --- 2 DSR 32 [0 0 0 0] ------- [0:255 16:255 32 0] 1 [1 2] [0 2 0 0->16] [0 0 0 0->0]
r 15.043273416 _3_ RTR  --- 2 DSR 32 [0 ffffffff 0 800] ------- [0:255 16:255 32 0] 1 [1 2] [0 2 0 0->16] [0 0 0 0->0]
r 15.043273750 _6_ RTR  --- 2 DSR 32 [0 ffffffff 0 800] ------- [0:255 16:255 32 0] 1 [1 2] [0 2 0 0->16] [0 0 0 0->0]
r 15.043273750 _1_ RTR  --- 2 DSR 32 [0 ffffffff 0 800] ------- [0:255 16:255 32 0] 1 [1 2] [0 2 0 0->16] [0 0 0 0->0]
r 15.043273828 _4_ RTR  --- 2 DSR 32 [0 ffffffff 0 800] ------- [0:255 16:255 32 0] 1 [1 2] [0 2 0 0->16] [0 0 0 0->0]
f 15.043686382 _3_ RTR  --- 2 DSR 48 [0 ffffffff 0 800] ------- [0:255 16:255 32 0] 2 [1 2] [0 2 0 0->16] [0 0 0 0->0]
f 15.043688279 _4_ RTR  --- 2 DSR 48 [0 ffffffff 0 800] ------- [0:255 16:255 32 0] 2 [1 2] [0 2 0 0->16] [0 0 0 0->0]
r 15.044586715 _0_ RTR  --- 2 DSR 48 [0 ffffffff 3 800] ------- [0:255 16:255 32 0] 2 [1 2] [0 2 0 0->16] [0 0 0 0->0]
r 15.044586715 _6_ RTR  --- 2 DSR 48 [0 ffffffff 3 800] ------- [0:255 16:255 32 0] 2 [1 2] [0 2 0 0->16] [0 0 0 0->0]
r 15.044587048 _9_ RTR  --- 2 DSR 48 [0 ffffffff 3 800] ------- [0:255 16:255 32 0] 2 [1 2] [0 2 0 0->16] [0 0 0 0->0]
r 15.044587048 _4_ RTR  --- 2 DSR 48 [0 ffffffff 3 800] ------- [0:255 16:255 32 0] 2 [1 2] [0 2 0 0->16] [0 0 0 0->0]
r 15.044587127 _1_ RTR  --- 2 DSR 48 [0 ffffffff 3 800] ------- [0:255 16:255 32 0] 2 [1 2] [0 2 0 0->16] [0 0 0 0->0]
r 15.044587127 _7_ RTR  --- 2 DSR 48 [0 ffffffff 3 800] ------- [0:255 16:255 32 0] 2 [1 2] [0 2 0 0->16] [0 0 0 0->0]
r 15.045877382 _1_ RTR  --- 2 DSR 48 [0 ffffffff 4 800] ------- [0:255 16:255 32 0] 2 [1 2] [0 2 0 0->16] [0 0 0 0->0]
r 15.045877382 _7_ RTR  --- 2 DSR 48 [0 ffffffff 4 800] ------- [0:255 16:255 32 0] 2 [1 2] [0 2 0 0->16] [0 0 0 0->0]
r 15.045877715 _3_ RTR  --- 2 DSR 48 [0 ffffffff 4 800] ------- [0:255 16:255 32 0] 2 [1 2] [0 2 0 0->16] [0 0 0 0->0]
r 15.045877715 _10_ RTR  --- 2 DSR 48 [0 ffffffff 4 800] ------- [0:255 16:255 32 0] 2 [1 2] [0 2 0 0->16] [0 0 0 0->0]
r 15.045877715 _5_ RTR  --- 2 DSR 48 [0 ffffffff 4 800] ------- [0:255 16:255 32 0] 2 [1 2] [0 2 0 0->16] [0 0 0 0->0]
r 15.045877794 _6_ RTR  --- 2 DSR 48 [0 ffffffff 4 800] ------- [0:255 16:255 32 0] 2 [1 2] [0 2 0 0->16] [0 0 0 0->0]
r 15.045877794 _0_ RTR  --- 2 DSR 48 [0 ffffffff 4 800] ------- [0:255 16:255 32 0] 2 [1 2] [0 2 0 0->16] [0 0 0 0->0]
r 15.045877794 _2_ RTR  --- 2 DSR 48 [0 ffffffff 4 800] ------- [0:255 16:255 32 0] 2 [1 2] [0 2 0 0->16] [0 0 0 0->0]
r 15.045877794 _8_ RTR  --- 2 DSR 48 [0 ffffffff 4 800] ------- [0:255 16:255 32 0] 2 [1 2] [0 2 0 0->16] [0 0 0 0->0]
f 15.046611384 _6_ RTR  --- 2 DSR 48 [0 ffffffff 0 800] ------- [0:255 16:255 32 0] 2 [1 2] [0 2 0 0->16] [0 0 0 0->0]
r 15.047991717 _3_ RTR  --- 2 DSR 48 [0 ffffffff 6 800] ------- [0:255 16:255 32 0] 2 [1 2] [0 2 0 0->16] [0 0 0 0->0]
r 15.047991717 _9_ RTR  --- 2 DSR 48 [0 ffffffff 6 800] ------- [0:255 16:255 32 0] 2 [1 2] [0 2 0 0->16] [0 0 0 0->0]
r 15.047992051 _0_ RTR  --- 2 DSR 48 [0 ffffffff 6 800] ------- [0:255 16:255 32 0] 2 [1 2] [0 2 0 0->16] [0 0 0 0->0]
r 15.047992051 _12_ RTR  --- 2 DSR 48 [0 ffffffff 6 800] ------- [0:255 16:255 32 0] 2 [1 2] [0 2 0 0->16] [0 0 0 0->0]
r 15.047992051 _7_ RTR  --- 2 DSR 48 [0 ffffffff 6 800] ------- [0:255 16:255 32 0] 2 [1 2] [0 2 0 0->16] [0 0 0 0->0]
r 15.047992129 _4_ RTR  --- 2 DSR 48 [0 ffffffff 6 800] ------- [0:255 16:255 32 0] 2 [1 2] [0 2 0 0->16] [0 0 0 0->0]
r 15.047992129 _10_ RTR  --- 2 DSR 48 [0 ffffffff 6 800] ------- [0:255 16:255 32 0] 2 [1 2] [0 2 0 0->16] [0 0 0 0->0]
f 15.048279100 _1_ RTR  --- 2 DSR 48 [0 ffffffff 0 800] ------- [0:255 16:255 32 0] 2 [1 2] [0 2 0 0->16] [0 0 0 0->0]
f 15.048280601 _9_ RTR  --- 2 DSR 68 [0 ffffffff 3 800] ------- [0:255 16:255 32 0] 3 [1 2] [0 2 0 0->16] [0 0 0 0->0]
f 15.048791539 _7_ RTR  --- 2 DSR 68 [0 ffffffff 3 800] ------- [0:255 16:255 32 0] 3 [1 2] [0 2 0 0->16] [0 0 0 0->0]
s 15.049630879 _0_ AGT  --- 3 cbr 512 [0 0 0 0] ------- [0:0 16:0 32 0] [1] 0 0
r 15.049630879 _0_ RTR  --- 3 cbr 512 [0 0 0 0] ------- [0:0 16:0 32 0] [1] 0 0
r 15.049740934 _6_ RTR  --- 2 DSR 68 [0 ffffffff 9 800] ------- [0:255 16:255 32 0] 3 [1 2] [0 2 0 0->16] [0 0 0 0->0]
r 15.049740934 _12_ RTR  --- 2 DSR 68 [0 ffffffff 9 800] ------- [0:255 16:255 32 0] 3 [1 2] [0 2 0 0->16] [0 0 0 0->0]
r 15.049741268 _3_ RTR  --- 2 DSR 68 [0 ffffffff 9 800] ------- [0:255 16:255 32 0] 3 [1 2] [0 2 0 0->16] [0 0 0 0->0]
r 15.049741268 _15_ RTR  --- 2 DSR 68 [0 ffffffff 9 800] ------- [0:255 16:255 32 0] 3 [1 2] [0 2 0 0->16] [0 0 0 0->0]
r 15.049741268 _10_ RTR  --- 2 DSR 68 [0 ffffffff 9 800] ------- [0:255 16:255 32 0] 3 [1 2] [0 2 0 0->16] [0 0 0 0->0]
r 15.049741346 _19_ RTR  --- 2 DSR 68 [0 ffffffff 9 800] ------- [0:255 16:255 32 0] 3 [1 2] [0 2 0 0->16] [0 0 0 0->0]
r 15.049741346 _7_ RTR  --- 2 DSR 68 [0 ffffffff 9 800] ------- [0:255 16:255 32 0] 3 [1 2] [0 2 0 0->16] [0 0 0 0->0]
r 15.049741346 _13_ RTR  --- 2 DSR 68 [0 ffffffff 9 800] ------- [0:255 16:255 32 0] 3 [1 2] [0 2 0 0->16] [0 0 0 0->0]
f 15.050732664 _10_ RTR  --- 2 DSR 68 [0 ffffffff 4 800] ------- [0:255 16:255 32 0] 3 [1 2] [0 2 0 0->16] [0 0 0 0->0]
f 15.050745316 _5_ RTR  --- 2 DSR 68 [0 ffffffff 4 800] ------- [0:255 16:255 32 0] 3 [1 2] [0 2 0 0->16] [0 0 0 0->0]
r 15.050871680 _4_ RTR  --- 2 DSR 68 [0 ffffffff 7 800] ------- [0:255 16:255 32 0] 3 [1 2] [0 2 0 0->16] [0 0 0 0->0]
r 15.050871680 _10_ RTR  --- 2 DSR 68 [0 ffffffff 7 800] ------- [0:255 16:255 32 0] 3 [1 2] [0 2 0 0->16] [0 0 0 0->0]
r 15.050872013 _1_ RTR  --- 2 DSR 68 [0 ffffffff 7 800] ------- [0:255 16:255 32 0] 3 [1 2] [0 2 0 0->16] [0 0 0 0->0]
r 15.050872013 _6_ RTR  --- 2 DSR 68 [0 ffffffff 7 800] ------- [0:255 16:255 32 0] 3 [1 2] [0 2 0 0->16] [0 0 0 0->0]
r 15.050872013 _13_ RTR  --- 2 DSR 68 [0 ffffffff 7 800] ------- [0:255 16:255 32 0] 3 [1 2] [0 2 0 0->16] [0 0 0 0->0]
r 15.050872013 _8_ RTR  --- 2 DSR 68 [0 ffffffff 7 800] ------- [0:255 16:255 32 0] 3 [1 2] [0 2 0 0->16] [0 0 0 0->0]
r 15.050872092 _9_ RTR  --- 2 DSR 68 [0 ffffffff 7 800] ------- [0:255 16:255 32 0] 3 [1 2] [0 2 0 0->16] [0 0 0 0->0]
r 15.050872092 _3_ RTR  --- 2 DSR 68 [0 ffffffff 7 800] ------- [0:255 16:255 32 0] 3 [1 2] [0 2 0 0->16] [0 0 0 0->0]
r 15.050872092 _20_ RTR  --- 2 DSR 68 [0 ffffffff 7 800] ------- [0:255 16:255 32 0] 3 [1 2] [0 2 0 0->16] [0 0 0 0->0]
r 15.050872092 _5_ RTR  --- 2 DSR 68 [0 ffffffff 7 800] ------- [0:255 16:255 32 0] 3 [1 2] [0 2 0 0->16] [0 0 0 0->0]
r 15.050872092 _11_ RTR  --- 2 DSR 68 [0 ffffffff 7 800] ------- [0:255 16:255 32 0] 3 [1 2] [0 2 0 0->16] [0 0 0 0->0]
f 15.051814478 _13_ RTR  --- 2 DSR 92 [0 ffffffff 9 800] ------- [0:255 16:255 32 0] 4 [1 2] [0 2 0 0->16] [0 0 0 0->0]
r 15.051942013 _7_ RTR  --- 2 DSR 68 [0 ffffffff a 800] ------- [0:255 16:255 32 0] 3 [1 2] [0 2 0 0->16] [0 0 0 0->0]
r 15.051942013 _13_ RTR  --- 2 DSR 68 [0 ffffffff a 800] ------- [0:255 16:255 32 0] 3 [1 2] [0 2 0 0->16] [0 0 0 0->0]
r 15.051942151 _20_ RTR  --- 2 DSR 68 [0 ffffffff a 800] ------- [0:255 16:255 32 0] 3 [1 2] [0 2 0 0->16] [0 0 0 0->0]
r 15.051942346 _4_ RTR  --- 2 DSR 68 [0 ffffffff a 800] ------- [0:255 16:255 32 0] 3 [1 2] [0 2 0 0->16] [0 0 0 0->0]
r 15.051942346 _9_ RTR  --- 2 DSR 68 [0 ffffffff a 800] ------- [0:255 16:255 32 0] 3 [1 2] [0 2 0 0->16] [0 0 0 0->0]
r 15.051942346 _16_ RTR  --- 2 DSR 68 [0 ffffffff a 800] ------- [0:255 16:255 32 0] 3 [1 2] [0 2 0 0->16] [0 0 0 0->0]
r 15.051942346 _11_ RTR  --- 2 DSR 68 [0 ffffffff a 800] ------- [0:255 16:255 32 0] 3 [1 2] [0 2 0 0->16] [0 0 0 0->0]
r 15.051942425 _19_ RTR  --- 2 DSR 68 [0 ffffffff a 800] ------- [0:255 16:255 32 0] 3 [1 2] [0 2 0 0->16] [0 0 0 0->0]
r 15.051942425 _12_ RTR  --- 2 DSR 68 [0 ffffffff a 800] ------- [0:255 16:255 32 0] 3 [1 2] [0 2 0 0->16] [0 0 0 0->0]
r 15.051942425 _6_ RTR  --- 2 DSR 68 [0 ffffffff a 800] ------- [0:255 16:255 32 0] 3 [1 2] [0 2 0 0->16] [0 0 0 0->0]
r 15.051942425 _18_ RTR  --- 2 DSR 68 [0 ffffffff a 800] ------- [0:255 16:255 32 0] 3 [1 2] [0 2 0 0->16] [0 0 0 0->0]
r 15.051942425 _8_ RTR  --- 2 DSR 68 [0 ffffffff a 800] ------- [0:255 16:255 32 0] 3 [1 2] [0 2 0 0->16] [0 0 0 0->0]
r 15.051942425 _14_ RTR  --- 2 DSR 68 [0 ffffffff a 800] ------- [0:255 16:255 32 0] 3 [1 2] [0 2 0 0->16] [0 0 0 0->0]
f 15.052774778 _8_ RTR  --- 2 DSR 68 [0 ffffffff 4 800] ------- [0:255 16:255 32 0] 3 [1 2] [0 2 0 0->16] [0 0 0 0->0]
f 15.052999387 _2_ RTR  --- 2 DSR 68 [0 ffffffff 4 800] ------- [0:255 16:255 32 0] 3 [1 2] [0 2 0 0->16] [0 0 0 0->0]
f 15.053233899 _14_ RTR  --- 2 DSR 92 [0 ffffffff a 800] ------- [0:255 16:255 32 0] 4 [1 2] [0 2 0 0->16] [0 0 0 0->0]
r 15.053584346 _10_ RTR  --- 2 DSR 92 [0 ffffffff d 800] ------- [0:255 16:255 32 0] 4 [1 2] [0 2 0 0->16] [0 0 0 0->0]
r 15.053584346 _16_ RTR  --- 2 DSR 92 [0 ffffffff d 800] ------- [0:255 16:255 32 0] 4 [1 2] [0 2 0 0->16] [0 0 0 0->0]
r 15.053584346 _20_ RTR  --- 2 DSR 92 [0 ffffffff d 800] ------- [0:255 16:255 32 0] 4 [1 2] [0 2 0 0->16] [0 0 0 0->0]
r 15.053584484 _19_ RTR  --- 2 DSR 92 [0 ffffffff d 800] ------- [0:255 16:255 32 0] 4 [1 2] [0 2 0 0->16] [0 0 0 0->0]
r 15.053584484 _18_ RTR  --- 2 DSR 92 [0 ffffffff d 800] ------- [0:255 16:255 32 0] 4 [1 2] [0 2 0 0->16] [0 0 0 0->0]
r 15.053584680 _7_ RTR  --- 2 DSR 92 [0 ffffffff d 800] ------- [0:255 16:255 32 0] 4 [1 2] [0 2 0 0->16] [0 0 0 0->0]
r 15.053584680 _12_ RTR  --- 2 DSR 92 [0 ffffffff d 800] ------- [0:255 16:255 32 0] 4 [1 2] [0 2 0 0->16] [0 0 0 0->0]
r 15.053584680 _14_ RTR  --- 2 DSR 92 [0 ffffffff d 800] ------- [0:255 16:255 32 0] 4 [1 2] [0 2 0 0->16] [0 0 0 0->0]
r 15.053584758 _15_ RTR  --- 2 DSR 92 [0 ffffffff d 800] ------- [0:255 16:255 32 0] 4 [1 2] [0 2 0 0->16] [0 0 0 0->0]
r 15.053584758 _9_ RTR  --- 2 DSR 92 [0 ffffffff d 800] ------- [0:255 16:255 32 0] 4 [1 2] [0 2 0 0->16] [0 0 0 0->0]
r 15.053584758 _11_ RTR  --- 2 DSR 92 [0 ffffffff d 800] ------- [0:255 16:255 32 0] 4 [1 2] [0 2 0 0->16] [0 0 0 0->0]
r 15.053584758 _17_ RTR  --- 2 DSR 92 [0 ffffffff d 800] ------- [0:255 16:255 32 0] 4 [1 2] [0 2 0 0->16] [0 0 0 0->0]
f 15.054161740 _12_ RTR  --- 2 DSR 68 [0 ffffffff 6 800] ------- [0:255 16:255 32 0] 3 [1 2] [0 2 0 0->16] [0 0 0 0->0]
s 15.054266948 _16_ RTR  --- 6 DSR 68 [0 0 0 0] ------- [16:255 0:255 254 13] 5 [0 2] [1 2 5 0->16] [0 0 0 0->0]
r 15.054827013 _11_ RTR  --- 2 DSR 92 [0 ffffffff e 800] ------- [0:255 16:255 32 0] 4 [1 2] [0 2 0 0->16] [0 0 0 0->0]
r 15.054827013 _20_ RTR  --- 2 DSR 92 [0 ffffffff e 800] ------- [0:255 16:255 32 0] 4 [1 2] [0 2 0 0->16] [0 0 0 0->0]
r 15.054827013 _17_ RTR  --- 2 DSR 92 [0 ffffffff e 800] ------- [0:255 16:255 32 0] 4 [1 2] [0 2 0 0->16] [0 0 0 0->0]
r 15.054827151 _18_ RTR  --- 2 DSR 92 [0 ffffffff e 800] ------- [0:255 16:255 32 0] 4 [1 2] [0 2 0 0->16] [0 0 0 0->0]
r 15.054827346 _8_ RTR  --- 2 DSR 92 [0 ffffffff e 800] ------- [0:255 16:255 32 0] 4 [1 2] [0 2 0 0->16] [0 0 0 0->0]
r 15.054827346 _13_ RTR  --- 2 DSR 92 [0 ffffffff e 800] ------- [0:255 16:255 32 0] 4 [1 2] [0 2 0 0->16] [0 0 0 0->0]
r 15.054827425 _16_ RTR  --- 2 DSR 92 [0 ffffffff e 800] ------- [0:255 16:255 32 0] 4 [1 2] [0 2 0 0->16] [0 0 0 0->0]
r 15.054827425 _10_ RTR  --- 2 DSR 92 [0 ffffffff e 800] ------- [0:255 16:255 32 0] 4 [1 2] [0 2 0 0->16] [0 0 0 0->0]
f 15.055404543 _19_ RTR  --- 2 DSR 92 [0 ffffffff 9 800] ------- [0:255 16:255 32 0] 4 [1 2] [0 2 0 0->16] [0 0 0 0->0]
r 15.056017680 _5_ RTR  --- 2 DSR 68 [0 ffffffff 8 800] ------- [0:255 16:255 32 0] 3 [1 2] [0 2 0 0->16] [0 0 0 0->0]
r 15.056017680 _11_ RTR  --- 2 DSR 68 [0 ffffffff 8 800] ------- [0:255 16:255 32 0] 3 [1 2] [0 2 0 0->16] [0 0 0 0->0]
r 15.056018013 _2_ RTR  --- 2 DSR 68 [0 ffffffff 8 800] ------- [0:255 16:255 32 0] 3 [1 2] [0 2 0 0->16] [0 0 0 0->0]
r 15.056018013 _7_ RTR  --- 2 DSR 68 [0 ffffffff 8 800] ------- [0:255 16:255 32 0] 3 [1 2] [0 2 0 0->16] [0 0 0 0->0]
r 15.056018013 _14_ RTR  --- 2 DSR 68 [0 ffffffff 8 800] ------- [0:255 16:255 32 0] 3 [1 2] [0 2 0 0->16] [0 0 0 0->0]
r 15.056018092 _20_ RTR  --- 2 DSR 68 [0 ffffffff 8 800] ------- [0:255 16:255 32 0] 3 [1 2] [0 2 0 0->16] [0 0 0 0->0]
r 15.056018092 _10_ RTR  --- 2 DSR 68 [0 ffffffff 8 800] ------- [0:255 16:255 32 0] 3 [1 2] [0 2 0 0->16] [0 0 0 0->0]
r 15.056018092 _4_ RTR  --- 2 DSR 68 [0 ffffffff 8 800] ------- [0:255 16:255 32 0] 3 [1 2] [0 2 0 0->16] [0 0 0 0->0]
s 15.056781102 _16_ RTR  --- 7 DSR 68 [0 0 0 0] ------- [16:255 0:255 254 14] 5 [0 2] [1 2 5 0->16] [0 0 0 0->0]
r 15.057348346 _5_ RTR  --- 2 DSR 68 [0 ffffffff 2 800] ------- [0:255 16:255 32 0] 3 [1 2] [0 2 0 0->16] [0 0 0 0->0]
r 15.057348680 _1_ RTR  --- 2 DSR 68 [0 ffffffff 2 800] ------- [0:255 16:255 32 0] 3 [1 2] [0 2 0 0->16] [0 0 0 0->0]
r 15.057348680 _8_ RTR  --- 2 DSR 68 [0 ffffffff 2 800] ------- [0:255 16:255 32 0] 3 [1 2] [0 2 0 0->16] [0 0 0 0->0]
r 15.057533170 _15_ RTR  --- 2 DSR 68 [0 ffffffff c 800] ------- [0:255 16:255 32 0] 3 [1 2] [0 2 0 0->16] [0 0 0 0->0]
r 15.057533308 _19_ RTR  --- 2 DSR 68 [0 ffffffff c 800] ------- [0:255 16:255 32 0] 3 [1 2] [0 2 0 0->16] [0 0 0 0->0]
f 15.058841192 _15_ RTR  --- 2 DSR 92 [0 ffffffff 9 800] ------- [0:255 16:255 32 0] 4 [1 2] [0 2 0 0->16] [0 0 0 0->0]
f 15.058853815 _11_ RTR  --- 2 DSR 92 [0 ffffffff 7 800] ------- [0:255 16:255 32 0] 4 [1 2] [0 2 0 0->16] [0 0 0 0->0]
r 15.058915642 _15_ RTR  --- 2 DSR 92 [0 ffffffff 13 800] ------- [0:255 16:255 32 0] 4 [1 2] [0 2 0 0->16] [0 0 0 0->0]
r 15.058915642 _16_ RTR  --- 2 DSR 92 [0 ffffffff 13 800] ------- [0:255 16:255 32 0] 4 [1 2] [0 2 0 0->16] [0 0 0 0->0]
r 15.058915780 _12_ RTR  --- 2 DSR 92 [0 ffffffff 13 800] ------- [0:255 16:255 32 0] 4 [1 2] [0 2 0 0->16] [0 0 0 0->0]
r 15.058915780 _13_ RTR  --- 2 DSR 92 [0 ffffffff 13 800] ------- [0:255 16:255 32 0] 4 [1 2] [0 2 0 0->16] [0 0 0 0->0]
r 15.058915975 _18_ RTR  --- 2 DSR 92 [0 ffffffff 13 800] ------- [0:255 16:255 32 0] 4 [1 2] [0 2 0 0->16] [0 0 0 0->0]
r 15.058916054 _9_ RTR  --- 2 DSR 92 [0 ffffffff 13 800] ------- [0:255 16:255 32 0] 4 [1 2] [0 2 0 0->16] [0 0 0 0->0]
r 15.058916054 _10_ RTR  --- 2 DSR 92 [0 ffffffff 13 800] ------- [0:255 16:255 32 0] 4 [1 2] [0 2 0 0->16] [0 0 0 0->0]
r 15.058916054 _20_ RTR  --- 2 DSR 92 [0 ffffffff 13 800] ------- [0:255 16:255 32 0] 4 [1 2] [0 2 0 0->16] [0 0 0 0->0]
f 15.058962882 _20_ RTR  --- 2 DSR 92 [0 ffffffff 7 800] ------- [0:255 16:255 32 0] 4 [1 2] [0 2 0 0->16] [0 0 0 0->0]
r 15.060355216 _18_ RTR  --- 2 DSR 92 [0 ffffffff 14 800] ------- [0:255 16:255 32 0] 4 [1 2] [0 2 0 0->16] [0 0 0 0->0]
r 15.060355216 _13_ RTR  --- 2 DSR 92 [0 ffffffff 14 800] ------- [0:255 16:255 32 0] 4 [1 2] [0 2 0 0->16] [0 0 0 0->0]
r 15.060355216 _14_ RTR  --- 2 DSR 92 [0 ffffffff 14 800] ------- [0:255 16:255 32 0] 4 [1 2] [0 2 0 0->16] [0 0 0 0->0]
r 15.060355354 _16_ RTR  --- 2 DSR 92 [0 ffffffff 14 800] ------- [0:255 16:255 32 0] 4 [1 2] [0 2 0 0->16] [0 0 0 0->0]
r 15.060355354 _10_ RTR  --- 2 DSR 92 [0 ffffffff 14 800] ------- [0:255 16:255 32 0] 4 [1 2] [0 2 0 0->16] [0 0 0 0->0]
r 15.060355354 _11_ RTR  --- 2 DSR 92 [0 ffffffff 14 800] ------- [0:255 16:255 32 0] 4 [1 2] [0 2 0 0->16] [0 0 0 0->0]
r 15.060355354 _17_ RTR  --- 2 DSR 92 [0 ffffffff 14 800] ------- [0:255 16:255 32 0] 4 [1 2] [0 2 0 0->16] [0 0 0 0->0]
r 15.060355628 _7_ RTR  --- 2 DSR 92 [0 ffffffff 14 800] ------- [0:255 16:255 32 0] 4 [1 2] [0 2 0 0->16] [0 0 0 0->0]
r 15.060355628 _19_ RTR  --- 2 DSR 92 [0 ffffffff 14 800] ------- [0:255 16:255 32 0] 4 [1 2] [0 2 0 0->16] [0 0 0 0->0]
r 15.060355628 _8_ RTR  --- 2 DSR 92 [0 ffffffff 14 800] ------- [0:255 16:255 32 0] 4 [1 2] [0 2 0 0->16] [0 0 0 0->0]
f 15.060754714 _18_ RTR  --- 2 DSR 92 [0 ffffffff a 800] ------- [0:255 16:255 32 0] 4 [1 2] [0 2 0 0->16] [0 0 0 0->0]
s 15.060945961 _16_ RTR  --- 5 DSR 60 [0 0 0 0] ------- [16:255 0:255 254 10] 4 [0 2] [1 2 4 0->16] [0 0 0 0->0]
f 15.061399561 _17_ RTR  --- 2 DSR 120 [0 ffffffff d 800] ------- [0:255 16:255 32 0] 5 [1 2] [0 2 0 0->16] [0 0 0 0->0]
r 15.061557687 _8_ RTR  --- 2 DSR 92 [0 ffffffff b 800] ------- [0:255 16:255 32 0] 4 [1 2] [0 2 0 0->16] [0 0 0 0->0]
r 15.061557687 _14_ RTR  --- 2 DSR 92 [0 ffffffff b 800] ------- [0:255 16:255 32 0] 4 [1 2] [0 2 0 0->16] [0 0 0 0->0]
r 15.061557825 _20_ RTR  --- 2 DSR 92 [0 ffffffff b 800] ------- [0:255 16:255 32 0] 4 [1 2] [0 2 0 0->16] [0 0 0 0->0]
r 15.061558020 _5_ RTR  --- 2 DSR 92 [0 ffffffff b 800] ------- [0:255 16:255 32 0] 4 [1 2] [0 2 0 0->16] [0 0 0 0->0]
r 15.061558020 _10_ RTR  --- 2 DSR 92 [0 ffffffff b 800] ------- [0:255 16:255 32 0] 4 [1 2] [0 2 0 0->16] [0 0 0 0->0]
r 15.061558020 _17_ RTR  --- 2 DSR 92 [0 ffffffff b 800] ------- [0:255 16:255 32 0] 4 [1 2] [0 2 0 0->16] [0 0 0 0->0]
r 15.061558099 _18_ RTR  --- 2 DSR 92 [0 ffffffff b 800] ------- [0:255 16:255 32 0] 4 [1 2] [0 2 0 0->16] [0 0 0 0->0]
r 15.061558099 _13_ RTR  --- 2 DSR 92 [0 ffffffff b 800] ------- [0:255 16:255 32 0] 4 [1 2] [0 2 0 0->16] [0 0 0 0->0]
r 15.061558099 _7_ RTR  --- 2 DSR 92 [0 ffffffff b 800] ------- [0:255 16:255 32 0] 4 [1 2] [0 2 0 0->16] [0 0 0 0->0]
r 15.062588354 _2_ RTR  --- 2 DSR 68 [0 ffffffff 5 800] ------- [0:255 16:255 32 0] 3 [1 2] [0 2 0 0->16] [0 0 0 0->0]
r 15.062588354 _8_ RTR  --- 2 DSR 68 [0 ffffffff 5 800] ------- [0:255 16:255 32 0] 3 [1 2] [0 2 0 0->16] [0 0 0 0->0]
r 15.062588687 _4_ RTR  --- 2 DSR 68 [0 ffffffff 5 800] ------- [0:255 16:255 32 0] 3 [1 2] [0 2 0 0->16] [0 0 0 0->0]
r 15.062588687 _11_ RTR  --- 2 DSR 68 [0 ffffffff 5 800] ------- [0:255 16:255 32 0] 3 [1 2] [0 2 0 0->16] [0 0 0 0->0]
r 15.062588766 _1_ RTR  --- 2 DSR 68 [0 ffffffff 5 800] ------- [0:255 16:255 32 0] 3 [1 2] [0 2 0 0->16] [0 0 0 0->0]
r 15.064560973 _4_ RTR  --- 2 DSR 48 [0 ffffffff 1 800] ------- [0:255 16:255 32 0] 2 [1 2] [0 2 0 0->16] [0 0 0 0->0]
r 15.064561306 _0_ RTR  --- 2 DSR 48 [0 ffffffff 1 800] ------- [0:255 16:255 32 0] 2 [1 2] [0 2 0 0->16] [0 0 0 0->0]
r 15.064561306 _7_ RTR  --- 2 DSR 48 [0 ffffffff 1 800] ------- [0:255 16:255 32 0] 2 [1 2] [0 2 0 0->16] [0 0 0 0->0]
r 15.064561306 _2_ RTR  --- 2 DSR 48 [0 ffffffff 1 800] ------- [0:255 16:255 32 0] 2 [1 2] [0 2 0 0->16] [0 0 0 0->0]
r 15.064561385 _3_ RTR  --- 2 DSR 48 [0 ffffffff 1 800] ------- [0:255 16:255 32 0] 2 [1 2] [0 2 0 0->16] [0 0 0 0->0]
r 15.064561385 _5_ RTR  --- 2 DSR 48 [0 ffffffff 1 800] ------- [0:255 16:255 32 0] 2 [1 2] [0 2 0 0->16] [0 0 0 0->0]
s 15.066488709 _16_ RTR  --- 8 DSR 68 [0 0 0 0] ------- [16:255 0:255 254 19] 5 [0 2] [1 2 5 0->16] [0 0 0 0->0]
r 15.066693306 _13_ RTR  --- 6 DSR 68 [13a d 10 800] ------- [16:255 0:255 254 13] 5 [0 2] [1 2 5 0->16] [0 0 0 0->0]
f 15.066693306 _13_ RTR  --- 6 DSR 68 [13a d 10 800] ------- [16:255 0:255 253 9] 5 [0 2] [1 2 5 0->16] [0 0 0 0->0]
r 15.068774640 _19_ RTR  --- 8 DSR 68 [13a 13 10 800] ------- [16:255 0:255 254 19] 5 [0 2] [1 2 5 0->16] [0 0 0 0->0]
f 15.068774640 _19_ RTR  --- 8 DSR 68 [13a 13 10 800] ------- [16:255 0:255 253 9] 5 [0 2] [1 2 5 0->16] [0 0 0 0->0]
s 15.069333342 _16_ RTR  --- 9 DSR 68 [0 0 0 0] ------- [16:255 0:255 254 20] 5 [0 2] [1 2 5 0->16] [0 0 0 0->0]
r 15.070431640 _16_ RTR  --- 2 DSR 92 [0 ffffffff 12 800] ------- [0:255 16:255 32 0] 4 [1 2] [0 2 0 0->16] [0 0 0 0->0]
r 15.070431640 _20_ RTR  --- 2 DSR 92 [0 ffffffff 12 800] ------- [0:255 16:255 32 0] 4 [1 2] [0 2 0 0->16] [0 0 0 0->0]
r 15.070431640 _17_ RTR  --- 2 DSR 92 [0 ffffffff 12 800] ------- [0:255 16:255 32 0] 4 [1 2] [0 2 0 0->16] [0 0 0 0->0]
r 15.070431778 _13_ RTR  --- 2 DSR 92 [0 ffffffff 12 800] ------- [0:255 16:255 32 0] 4 [1 2] [0 2 0 0->16] [0 0 0 0->0]
r 15.070431778 _14_ RTR  --- 2 DSR 92 [0 ffffffff 12 800] ------- [0:255 16:255 32 0] 4 [1 2] [0 2 0 0->16] [0 0 0 0->0]
r 15.070431973 _19_ RTR  --- 2 DSR 92 [0 ffffffff 12 800] ------- [0:255 16:255 32 0] 4 [1 2] [0 2 0 0->16] [0 0 0 0->0]
r 15.070432052 _10_ RTR  --- 2 DSR 92 [0 ffffffff 12 800] ------- [0:255 16:255 32 0] 4 [1 2] [0 2 0 0->16] [0 0 0 0->0]
r 15.070432052 _11_ RTR  --- 2 DSR 92 [0 ffffffff 12 800] ------- [0:255 16:255 32 0] 4 [1 2] [0 2 0 0->16] [0 0 0 0->0]
r 15.072140209 _9_ RTR  --- 8 DSR 68 [13a 9 13 800] ------- [16:255 0:255 253 9] 5 [0 2] [1 2 5 0->16] [0 0 0 0->0]
f 15.072140209 _9_ RTR  --- 8 DSR 68 [13a 9 13 800] ------- [16:255 0:255 252 3] 5 [0 2] [1 2 5 0->16] [0 0 0 0->0]
r 15.074283190 _9_ RTR  --- 6 DSR 68 [13a 9 d 800] ------- [16:255 0:255 253 9] 5 [0 2] [1 2 5 0->16] [0 0 0 0->0]
f 15.074283190 _9_ RTR  --- 6 DSR 68 [13a 9 d 800] ------- [16:255 0:255 252 3] 5 [0 2] [1 2 5 0->16] [0 0 0 0->0]
r 15.076485190 _3_ RTR  --- 8 DSR 68 [13a 3 9 800] ------- [16:255 0:255 252 3] 5 [0 2] [1 2 5 0->16] [0 0 0 0->0]
f 15.076485190 _3_ RTR  --- 8 DSR 68 [13a 3 9 800] ------- [16:255 0:255 251 0] 5 [0 2] [1 2 5 0->16] [0 0 0 0->0]
r 15.078356348 _14_ RTR  --- 2 DSR 120 [0 ffffffff 11 800] ------- [0:255 16:255 32 0] 5 [1 2] [0 2 0 0->16] [0 0 0 0->0]
r 15.078356348 _18_ RTR  --- 2 DSR 120 [0 ffffffff 11 800] ------- [0:255 16:255 32 0] 5 [1 2] [0 2 0 0->16] [0 0 0 0->0]
r 15.078356486 _20_ RTR  --- 2 DSR 120 [0 ffffffff 11 800] ------- [0:255 16:255 32 0] 5 [1 2] [0 2 0 0->16] [0 0 0 0->0]
r 15.078356681 _11_ RTR  --- 2 DSR 120 [0 ffffffff 11 800] ------- [0:255 16:255 32 0] 5 [1 2] [0 2 0 0->16] [0 0 0 0->0]
r 15.078356681 _16_ RTR  --- 2 DSR 120 [0 ffffffff 11 800] ------- [0:255 16:255 32 0] 5 [1 2] [0 2 0 0->16] [0 0 0 0->0]
r 15.078686190 _0_ RTR  --- 8 DSR 68 [13a 0 3 800] ------- [16:255 0:255 251 0] 5 [0 2] [1 2 5 0->16] [0 0 0 0->0]
SFESTs 15.078686190 _0_ 0 [0 -> 16] 1(1) to 3 [0 |3 9 19 16 ]
SFESTs 15.078686190 _0_ 3 [0 -> 16] 1(1) to 3 [0 |3 9 19 16 ]
s 15.078686190 _0_ RTR  --- 0 cbr 560 [0 0 0 0] ------- [0:0 16:0 32 3] [0] 0 0
s 15.079617691 _16_ RTR  --- 10 DSR 68 [0 0 0 0] ------- [16:255 0:255 254 18] 5 [0 2] [1 2 5 0->16] [0 0 0 0->0]
r 15.081073190 _3_ RTR  --- 6 DSR 68 [13a 3 9 800] ------- [16:255 0:255 252 3] 5 [0 2] [1 2 5 0->16] [0 0 0 0->0]
f 15.081073190 _3_ RTR  --- 6 DSR 68 [13a 3 9 800] ------- [16:255 0:255 251 0] 5 [0 2] [1 2 5 0->16] [0 0 0 0->0]
s 15.081549447 _0_ AGT  --- 14 cbr 512 [0 0 0 0] ------- [0:0 16:0 32 0] [2] 0 0
r 15.081549447 _0_ RTR  --- 14 cbr 512 [0 0 0 0] ------- [0:0 16:0 32 0] [2] 0 0
SFESTs 15.081549447 _0_ 14 [0 -> 16] 1(1) to 3 [0 |3 9 19 16 ]
s 15.081549447 _0_ RTR  --- 14 cbr 560 [0 0 0 0] ------- [0:0 16:0 32 3] [2] 0 0
s 15.082020238 _16_ RTR  --- 13 DSR 76 [0 0 0 0] ------- [16:255 0:255 254 17] 6 [0 2] [1 2 6 0->16] [0 0 0 0->0]
r 15.083214190 _0_ RTR  --- 6 DSR 68 [13a 0 3 800] ------- [16:255 0:255 251 0] 5 [0 2] [1 2 5 0->16] [0 0 0 0->0]
r 15.089231190 _3_ RTR  --- 0 cbr 560 [13a 3 0 800] ------- [0:0 16:0 32 3] [0] 1 0
f 15.089231190 _3_ RTR  --- 0 cbr 560 [13a 3 0 800] ------- [0:0 16:0 31 9] [0] 1 0
r 15.095309190 _9_ RTR  --- 0 cbr 560 [13a 9 3 800] ------- [0:0 16:0 31 9] [0] 2 0
f 15.095309190 _9_ RTR  --- 0 cbr 560 [13a 9 3 800] ------- [0:0 16:0 30 19] [0] 2 0
r 15.101427426 _19_ RTR  --- 0 cbr 560 [13a 13 9 800] ------- [0:0 16:0 30 19] [0] 3 0
f 15.101427426 _19_ RTR  --- 0 cbr 560 [13a 13 9 800] ------- [0:0 16:0 29 16] [0] 3 0
r 15.103475624 _10_ RTR  --- 5 DSR 60 [13a a 10 800] ------- [16:255 0:255 254 10] 4 [0 2] [1 2 4 0->16] [0 0 0 0->0]
f 15.103475624 _10_ RTR  --- 5 DSR 60 [13a a 10 800] ------- [16:255 0:255 253 4] 4 [0 2] [1 2 4 0->16] [0 0 0 0->0]
r 15.105573624 _4_ RTR  --- 5 DSR 60 [13a 4 a 800] ------- [16:255 0:255 253 4] 4 [0 2] [1 2 4 0->16] [0 0 0 0->0]
f 15.105573624 _4_ RTR  --- 5 DSR 60 [13a 4 a 800] ------- [16:255 0:255 252 0] 4 [0 2] [1 2 4 0->16] [0 0 0 0->0]
r 15.107631860 _0_ RTR  --- 5 DSR 60 [13a 0 4 800] ------- [16:255 0:255 252 0] 4 [0 2] [1 2 4 0->16] [0 0 0 0->0]
s 15.108686190 _0_ RTR  --- 3 cbr 560 [0 0 0 0] ------- [0:0 16:0 32 3] [1] 0 0
s 15.112478877 _0_ AGT  --- 15 cbr 512 [0 0 0 0] ------- [0:0 16:0 32 0] [3] 0 0
r 15.112478877 _0_ RTR  --- 15 cbr 512 [0 0 0 0] ------- [0:0 16:0 32 0] [3] 0 0
SFESTs 15.112478877 _0_ 15 [0 -> 16] 3(1) to 4 [0 |4 10 16 ]
s 15.112478877 _0_ RTR  --- 15 cbr 556 [0 0 0 0] ------- [0:0 16:0 32 4] [3] 0 0
r 15.113968860 _3_ RTR  --- 14 cbr 560 [13a 3 0 800] ------- [0:0 16:0 32 3] [2] 1 0
f 15.113968860 _3_ RTR  --- 14 cbr 560 [13a 3 0 800] ------- [0:0 16:0 31 9] [2] 1 0
r 15.120086193 _3_ RTR  --- 3 cbr 560 [13a 3 0 800] ------- [0:0 16:0 32 3] [1] 1 0
f 15.120086193 _3_ RTR  --- 3 cbr 560 [13a 3 0 800] ------- [0:0 16:0 31 9] [1] 1 0
r 15.126124193 _9_ RTR  --- 14 cbr 560 [13a 9 3 800] ------- [0:0 16:0 31 9] [2] 2 0
f 15.126124193 _9_ RTR  --- 14 cbr 560 [13a 9 3 800] ------- [0:0 16:0 30 19] [2] 2 0
r 15.132182429 _19_ RTR  --- 14 cbr 560 [13a 13 9 800] ------- [0:0 16:0 30 19] [2] 3 0
f 15.132182429 _19_ RTR  --- 14 cbr 560 [13a 13 9 800] ------- [0:0 16:0 29 16] [2] 3 0
r 15.138399429 _16_ RTR  --- 0 cbr 560 [13a 10 13 800] ------- [0:0 16:0 29 16] [0] 4 0
r 15.138399429 _16_ AGT  --- 0 cbr 512 [13a 10 13 800] ------- [0:0 16:0 29 16] [0] 4 0
r 15.140665429 _17_ RTR  --- 13 DSR 76 [13a 11 10 800] ------- [16:255 0:255 254 17] 6 [0 2] [1 2 6 0->16] [0 0 0 0->0]
f 15.140665429 _17_ RTR  --- 13 DSR 76 [13a 11 10 800] ------- [16:255 0:255 253 13] 6 [0 2] [1 2 6 0->16] [0 0 0 0->0]
r 15.148641257 _16_ RTR  --- 14 cbr 560 [13a 10 13 800] ------- [0:0 16:0 29 16] [2] 4 0
r 15.148641257 _16_ AGT  --- 14 cbr 512 [13a 10 13 800] ------- [0:0 16:0 29 16] [2] 4 0
r 15.156044748 _9_ RTR  --- 3 cbr 560 [13a 9 3 800] ------- [0:0 16:0 31 9] [1] 2 0
f 15.156044748 _9_ RTR  --- 3 cbr 560 [13a 9 3 800] ------- [0:0 16:0 30 19] [1] 2 0
r 15.158430691 _18_ RTR  --- 10 DSR 68 [13a 12 10 800] ------- [16:255 0:255 254 18] 5 [0 2] [1 2 5 0->16] [0 0 0 0->0]
f 15.158430691 _18_ RTR  --- 10 DSR 68 [13a 12 10 800] ------- [16:255 0:255 253 10] 5 [0 2] [1 2 5 0->16] [0 0 0 0->0]
r 15.160532439 _20_ RTR  --- 9 DSR 68 [13a 14 10 800] ------- [16:255 0:255 254 20] 5 [0 2] [1 2 5 0->16] [0 0 0 0->0]
f 15.160532439 _20_ RTR  --- 9 DSR 68 [13a 14 10 800] ------- [16:255 0:255 253 7] 5 [0 2] [1 2 5 0->16] [0 0 0 0->0]
r 15.162675146 _14_ RTR  --- 7 DSR 68 [13a e 10 800] ------- [16:255 0:255 254 14] 5 [0 2] [1 2 5 0->16] [0 0 0 0->0]
f 15.162675146 _14_ RTR  --- 7 DSR 68 [13a e 10 800] ------- [16:255 0:255 253 10] 5 [0 2] [1 2 5 0->16] [0 0 0 0->0]
r 15.164717715 _7_ RTR  --- 9 DSR 68 [13a 7 14 800] ------- [16:255 0:255 253 7] 5 [0 2] [1 2 5 0->16] [0 0 0 0->0]
f 15.164717715 _7_ RTR  --- 9 DSR 68 [13a 7 14 800] ------- [16:255 0:255 252 3] 5 [0 2] [1 2 5 0->16] [0 0 0 0->0]
r 15.170726260 _19_ RTR  --- 3 cbr 560 [13a 13 9 800] ------- [0:0 16:0 30 19] [1] 3 0
f 15.170726260 _19_ RTR  --- 3 cbr 560 [13a 13 9 800] ------- [0:0 16:0 29 16] [1] 3 0
r 15.174980915 _10_ RTR  --- 7 DSR 68 [13a a e 800] ------- [16:255 0:255 253 10] 5 [0 2] [1 2 5 0->16] [0 0 0 0->0]
f 15.174980915 _10_ RTR  --- 7 DSR 68 [13a a e 800] ------- [16:255 0:255 252 4] 5 [0 2] [1 2 5 0->16] [0 0 0 0->0]
s 15.179353622 _0_ AGT  --- 16 cbr 512 [0 0 0 0] ------- [0:0 16:0 32 0] [4] 0 0
r 15.179353622 _0_ RTR  --- 16 cbr 512 [0 0 0 0] ------- [0:0 16:0 32 0] [4] 0 0
SFESTs 15.179353622 _0_ 16 [0 -> 16] 3(1) to 4 [0 |4 10 16 ]
s 15.179353622 _0_ RTR  --- 16 cbr 556 [0 0 0 0] ------- [0:0 16:0 32 4] [4] 0 0
r 15.181308224 _16_ RTR  --- 3 cbr 560 [13a 10 13 800] ------- [0:0 16:0 29 16] [1] 4 0
r 15.181308224 _16_ AGT  --- 3 cbr 512 [13a 10 13 800] ------- [0:0 16:0 29 16] [1] 4 0
r 15.183490890 _4_ RTR  --- 7 DSR 68 [13a 4 a 800] ------- [16:255 0:255 252 4] 5 [0 2] [1 2 5 0->16] [0 0 0 0->0]
f 15.183490890 _4_ RTR  --- 7 DSR 68 [13a 4 a 800] ------- [16:255 0:255 251 0] 5 [0 2] [1 2 5 0->16] [0 0 0 0->0]
r 15.185613460 _3_ RTR  --- 9 DSR 68 [13a 3 7 800] ------- [16:255 0:255 252 3] 5 [0 2] [1 2 5 0->16] [0 0 0 0->0]
f 15.185613460 _3_ RTR  --- 9 DSR 68 [13a 3 7 800] ------- [16:255 0:255 251 0] 5 [0 2] [1 2 5 0->16] [0 0 0 0->0]
r 15.187714460 _0_ RTR  --- 9 DSR 68 [13a 0 3 800] ------- [16:255 0:255 251 0] 5 [0 2] [1 2 5 0->16] [0 0 0 0->0]
r 15.190743441 _0_ RTR  --- 7 DSR 68 [13a 0 4 800] ------- [16:255 0:255 251 0] 5 [0 2] [1 2 5 0->16] [0 0 0 0->0]
r 15.192876306 _10_ RTR  --- 10 DSR 68 [13a a 12 800] ------- [16:255 0:255 253 10] 5 [0 2] [1 2 5 0->16] [0 0 0 0->0]
f 15.192876306 _10_ RTR  --- 10 DSR 68 [13a a 12 800] ------- [16:255 0:255 252 4] 5 [0 2] [1 2 5 0->16] [0 0 0 0->0]
r 15.195478306 _4_ RTR  --- 10 DSR 68 [13a 4 a 800] ------- [16:255 0:255 252 4] 5 [0 2] [1 2 5 0->16] [0 0 0 0->0]
f 15.195478306 _4_ RTR  --- 10 DSR 68 [13a 4 a 800] ------- [16:255 0:255 251 0] 5 [0 2] [1 2 5 0->16] [0 0 0 0->0]
r 15.197680542 _0_ RTR  --- 10 DSR 68 [13a 0 4 800] ------- [16:255 0:255 251 0] 5 [0 2] [1 2 5 0->16] [0 0 0 0->0]
r 15.204626778 _4_ RTR  --- 15 cbr 556 [13a 4 0 800] ------- [0:0 16:0 32 4] [3] 1 0
f 15.204626778 _4_ RTR  --- 15 cbr 556 [13a 4 0 800] ------- [0:0 16:0 31 10] [3] 1 0
r 15.210712778 _10_ RTR  --- 15 cbr 556 [13a a 4 800] ------- [0:0 16:0 31 10] [3] 2 0
f 15.210712778 _10_ RTR  --- 15 cbr 556 [13a a 4 800] ------- [0:0 16:0 30 16] [3] 2 0
s 15.215548440 _0_ AGT  --- 17 cbr 512 [0 0 0 0] ------- [0:0 16:0 32 0] [5] 0 0
r 15.215548440 _0_ RTR  --- 17 cbr 512 [0 0 0 0] ------- [0:0 16:0 32 0] [5] 0 0