n -t * -s 0  -x 100 -y 0 -Z 0 -z 30  -v circle -c black
n -t * -s 1  -x 300 -y 0 -Z 0 -z 30  -v circle -c black
n -t * -s 2  -x 500 -y 0 -Z 0 -z 30  -v circle -c black
n -t * -s 3  -x 100 -y 100 -Z 0 -z 30  -v circle -c black
n -t * -s 4  -x 300 -y 100 -Z 0 -z 30  -v circle -c black
n -t * -s 5  -x 500 -y 100 -Z 0 -z 30  -v circle -c black
n -t * -s 6  -x 100 -y 200 -Z 0 -z 30  -v circle -c black
n -t * -s 7  -x 300 -y 200 -Z 0 -z 30  -v circle -c black
n -t * -s 8  -x 500 -y 200 -Z 0 -z 30  -v circle -c black
n -t * -s 9  -x 100 -y 300 -Z 0 -z 30  -v circle -c black
n -t * -s 10  -x 300 -y 300 -Z 0 -z 30  -v circle -c black
n -t * -s 11  -x 500 -y 300 -Z 0 -z 30  -v circle -c black
n -t * -s 12  -x 100 -y 400 -Z 0 -z 30  -v circle -c black
n -t * -s 13  -x 300 -y 400 -Z 0 -z 30  -v circle -c black
n -t * -s 14  -x 500 -y 400 -Z 0 -z 30  -v circle -c black
n -t * -s 15  -x 100 -y 500 -Z 0 -z 30  -v circle -c black
n -t * -s 16  -x 300 -y 500 -Z 0 -z 30  -v circle -c black
n -t * -s 17  -x 500 -y 500 -Z 0 -z 30  -v circle -c black
n -t * -s 18  -x 400 -y 500 -Z 0 -z 30  -v circle -c black
n -t * -s 19  -x 200 -y 500 -Z 0 -z 30  -v circle -c black
n -t * -s 20  -x 400 -y 400 -Z 0 -z 30  -v circle -c black
V -t * -v 1.0a5 -a 0
W -t * -x 500 -y 500
A -t * -n 1 -p 0 -o 0xffffffff -c 31 -a 1
A -t * -h 1 -m 2147483647 -s 0
+ -t 15.000000000 -s 0 -d -1 -p cbr -e 512 -c 2 -a 0 -i 0 -k AGT 
- -t 15.000000000 -s 0 -d -1 -p cbr -e 512 -c 2 -a 0 -i 0 -k AGT
h -t 15.000000000 -s 0 -d -1 -p cbr -e 512 -c 2 -a 0 -i 0 -k AGT
+ -t 15.001436295 -s 0 -d -1 -p DSR -e 32 -c 2 -a 0 -i 1 -k RTR 
- -t 15.001436295 -s 0 -d -1 -p DSR -e 32 -c 2 -a 0 -i 1 -k RTR
h -t 15.001436295 -s 0 -d -1 -p DSR -e 32 -c 2 -a 0 -i 1 -k RTR
+ -t 15.042381083 -s 0 -d -1 -p DSR -e 32 -c 2 -a 0 -i 2 -k RTR 
- -t 15.042381083 -s 0 -d -1 -p DSR -e 32 -c 2 -a 0 -i 2 -k RTR
h -t 15.042381083 -s 0 -d -1 -p DSR -e 32 -c 2 -a 0 -i 2 -k RTR
+ -t 15.043686382 -s 3 -d -1 -p DSR -e 48 -c 2 -a 0 -i 2 -k RTR 
- -t 15.043686382 -s 3 -d -1 -p DSR -e 48 -c 2 -a 0 -i 2 -k RTR
h -t 15.043686382 -s 3 -d -1 -p DSR -e 48 -c 2 -a 0 -i 2 -k RTR
+ -t 15.043688279 -s 4 -d -1 -p DSR -e 48 -c 2 -a 0 -i 2 -k RTR 
- -t 15.043688279 -s 4 -d -1 -p DSR -e 48 -c 2 -a 0 -i 2 -k RTR
h -t 15.043688279 -s 4 -d -1 -p DSR -e 48 -c 2 -a 0 -i 2 -k RTR
+ -t 15.046611384 -s 6 -d -1 -p DSR -e 48 -c 2 -a 0 -i 2 -k RTR 
- -t 15.046611384 -s 6 -d -1 -p DSR -e 48 -c 2 -a 0 -i 2 -k RTR
h -t 15.046611384 -s 6 -d -1 -p DSR -e 48 -c 2 -a 0 -i 2 -k RTR
+ -t 15.048279100 -s 1 -d -1 -p DSR -e 48 -c 2 -a 0 -i 2 -k RTR 
- -t 15.048279100 -s 1 -d -1 -p DSR -e 48 -c 2 -a 0 -i 2 -k RTR
h -t 15.048279100 -s 1 -d -1 -p DSR -e 48 -c 2 -a 0 -i 2 -k RTR
+ -t 15.048280601 -s 9 -d -1 -p DSR -e 68 -c 2 -a 0 -i 2 -k RTR 
- -t 15.048280601 -s 9 -d -1 -p DSR -e 68 -c 2 -a 0 -i 2 -k RTR
h -t 15.048280601 -s 9 -d -1 -p DSR -e 68 -c 2 -a 0 -i 2 -k RTR
+ -t 15.048791539 -s 7 -d -1 -p DSR -e 68 -c 2 -a 0 -i 2 -k RTR 
- -t 15.048791539 -s 7 -d -1 -p DSR -e 68 -c 2 -a 0 -i 2 -k RTR
h -t 15.048791539 -s 7 -d -1 -p DSR -e 68 -c 2 -a 0 -i 2 -k RTR
+ -t 15.049630879 -s 0 -d -1 -p cbr -e 512 -c 2 -a 0 -i 3 -k AGT 
- -t 15.049630879 -s 0 -d -1 -p cbr -e 512 -c 2 -a 0 -i 3 -k AGT
h -t 15.049630879 -s 0 -d -1 -p cbr -e 512 -c 2 -a 0 -i 3 -k AGT
+ -t 15.050732664 -s 10 -d -1 -p DSR -e 68 -c 2 -a 0 -i 2 -k RTR 
- -t 15.050732664 -s 10 -d -1 -p DSR -e 68 -c 2 -a 0 -i 2 -k RTR
h -t 15.050732664 -s 10 -d -1 -p DSR -e 68 -c 2 -a 0 -i 2 -k RTR
+ -t 15.050745316 -s 5 -d -1 -p DSR -e 68 -c 2 -a 0 -i 2 -k RTR 
- -t 15.050745316 -s 5 -d -1 -p DSR -e 68 -c 2 -a 0 -i 2 -k RTR
h -t 15.050745316 -s 5 -d -1 -p DSR -e 68 -c 2 -a 0 -i 2 -k RTR
+ -t 15.051814478 -s 13 -d -1 -p DSR -e 92 -c 2 -a 0 -i 2 -k RTR 
- -t 15.051814478 -s 13 -d -1 -p DSR -e 92 -c 2 -a 0 -i 2 -k RTR
h -t 15.051814478 -s 13 -d -1 -p DSR -e 92 -c 2 -a 0 -i 2 -k RTR
+ -t 15.052774778 -s 8 -d -1 -p DSR -e 68 -c 2 -a 0 -i 2 -k RTR 
- -t 15.052774778 -s 8 -d -1 -p DSR -e 68 -c 2 -a 0 -i 2 -k RTR
h -t 15.052774778 -s 8 -d -1 -p DSR -e 68 -c 2 -a 0 -i 2 -k RTR
+ -t 15.052999387 -s 2 -d -1 -p DSR -e 68 -c 2 -a 0 -i 2 -k RTR 
- -t 15.052999387 -s 2 -d -1 -p DSR -e 68 -c 2 -a 0 -i 2 -k RTR
h -t 15.052999387 -s 2 -d -1 -p DSR -e 68 -c 2 -a 0 -i 2 -k RTR
+ -t 15.053233899 -s 14 -d -1 -p DSR -e 92 -c 2 -a 0 -i 2 -k RTR 
- -t 15.053233899 -s 14 -d -1 -p DSR -e 92 -c 2 -a 0 -i 2 -k RTR
h -t 15.053233899 -s 14 -d -1 -p DSR -e 92 -c 2 -a 0 -i 2 -k RTR
+ -t 15.054161740 -s 12 -d -1 -p DSR -e 68 -c 2 -a 0 -i 2 -k RTR 
- -t 15.054161740 -s 12 -d -1 -p DSR -e 68 -c 2 -a 0 -i 2 -k RTR
h -t 15.054161740 -s 12 -d -1 -p DSR -e 68 -c 2 -a 0 -i 2 -k RTR
+ -t 15.054266948 -s 16 -d 13 -p DSR -e 68 -c 2 -a 0 -i 6 -k RTR 
- -t 15.054266948 -s 16 -d 13 -p DSR -e 68 -c 2 -a 0 -i 6 -k RTR
h -t 15.054266948 -s 16 -d 13 -p DSR -e 68 -c 2 -a 0 -i 6 -k RTR
+ -t 15.055404543 -s 19 -d -1 -p DSR -e 92 -c 2 -a 0 -i 2 -k RTR 
- -t 15.055404543 -s 19 -d -1 -p DSR -e 92 -c 2 -a 0 -i 2 -k RTR
h -t 15.055404543 -s 19 -d -1 -p DSR -e 92 -c 2 -a 0 -i 2 -k RTR
+ -t 15.056781102 -s 16 -d 14 -p DSR -e 68 -c 2 -a 0 -i 7 -k RTR 
- -t 15.056781102 -s 16 -d 14 -p DSR -e 68 -c 2 -a 0 -i 7 -k RTR
h -t 15.056781102 -s 16 -d 14 -p DSR -e 68 -c 2 -a 0 -i 7 -k RTR
+ -t 15.058841192 -s 15 -d -1 -p DSR -e 92 -c 2 -a 0 -i 2 -k RTR 
- -t 15.058841192 -s 15 -d -1 -p DSR -e 92 -c 2 -a 0 -i 2 -k RTR
h -t 15.058841192 -s 15 -d -1 -p DSR -e 92 -c 2 -a 0 -i 2 -k RTR
+ -t 15.058853815 -s 11 -d -1 -p DSR -e 92 -c 2 -a 0 -i 2 -k RTR 
- -t 15.058853815 -s 11 -d -1 -p DSR -e 92 -c 2 -a 0 -i 2 -k RTR
h -t 15.058853815 -s 11 -d -1 -p DSR -e 92 -c 2 -a 0 -i 2 -k RTR
+ -t 15.058962882 -s 20 -d -1 -p DSR -e 92 -c 2 -a 0 -i 2 -k RTR 
- -t 15.058962882 -s 20 -d -1 -p DSR -e 92 -c 2 -a 0 -i 2 -k RTR
h -t 15.058962882 -s 20 -d -1 -p DSR -e 92 -c 2 -a 0 -i 2 -k RTR
+ -t 15.060754714 -s 18 -d -1 -p DSR -e 92 -c 2 -a 0 -i 2 -k RTR 
- -t 15.060754714 -s 18 -d -1 -p DSR -e 92 -c 2 -a 0 -i 2 -k RTR
h -t 15.060754714 -s 18 -d -1 -p DSR -e 92 -c 2 -a 0 -i 2 -k RTR
+ -t 15.060945961 -s 16 -d 10 -p DSR -e 60 -c 2 -a 0 -i 5 -k RTR 
- -t 15.060945961 -s 16 -d 10 -p DSR -e 60 -c 2 -a 0 -i 5 -k RTR
h -t 15.060945961 -s 16 -d 10 -p DSR -e 60 -c 2 -a 0 -i 5 -k RTR
+ -t 15.061399561 -s 17 -d -1 -p DSR -e 120 -c 2 -a 0 -i 2 -k RTR 
- -t 15.061399561 -s 17 -d -1 -p DSR -e 120 -c 2 -a 0 -i 2 -k RTR
h -t 15.061399561 -s 17 -d -1 -p DSR -e 120 -c 2 -a 0 -i 2 -k RTR
+ -t 15.066488709 -s 16 -d 19 -p DSR -e 68 -c 2 -a 0 -i 8 -k RTR 
- -t 15.066488709 -s 16 -d 19 -p DSR -e 68 -c 2 -a 0 -i 8 -k RTR
h -t 15.066488709 -s 16 -d 19 -p DSR -e 68 -c 2 -a 0 -i 8 -k RTR
+ -t 15.066693306 -s 13 -d 9 -p DSR -e 68 -c 2 -a 0 -i 6 -k RTR 
- -t 15.066693306 -s 13 -d 9 -p DSR -e 68 -c 2 -a 0 -i 6 -k RTR
h -t 15.066693306 -s 13 -d 9 -p DSR -e 68 -c 2 -a 0 -i 6 -k RTR
+ -t 15.068774640 -s 19 -d 9 -p DSR -e 68 -c 2 -a 0 -i 8 -k RTR 
- -t 15.068774640 -s 19 -d 9 -p DSR -e 68 -c 2 -a 0 -i 8 -k RTR
h -t 15.068774640 -s 19 -d 9 -p DSR -e 68 -c 2 -a 0 -i 8 -k RTR
+ -t 15.069333342 -s 16 -d 20 -p DSR -e 68 -c 2 -a 0 -i 9 -k RTR 
- -t 15.069333342 -s 16 -d 20 -p DSR -e 68 -c 2 -a 0 -i 9 -k RTR
h -t 15.069333342 -s 16 -d 20 -p DSR -e 68 -c 2 -a 0 -i 9 -k RTR
+ -t 15.072140209 -s 9 -d 3 -p DSR -e 68 -c 2 -a 0 -i 8 -k RTR 
- -t 15.072140209 -s 9 -d 3 -p DSR -e 68 -c 2 -a 0 -i 8 -k RTR
h -t 15.072140209 -s 9 -d 3 -p DSR -e 68 -c 2 -a 0 -i 8 -k RTR
+ -t 15.074283190 -s 9 -d 3 -p DSR -e 68 -c 2 -a 0 -i 6 -k RTR 
- -t 15.074283190 -s 9 -d 3 -p DSR -e 68 -c 2 -a 0 -i 6 -k RTR
h -t 15.074283190 -s 9 -d 3 -p DSR -e 68 -c 2 -a 0 -i 6 -k RTR
+ -t 15.076485190 -s 3 -d 0 -p DSR -e 68 -c 2 -a 0 -i 8 -k RTR 
- -t 15.076485190 -s 3 -d 0 -p DSR -e 68 -c 2 -a 0 -i 8 -k RTR
h -t 15.076485190 -s 3 -d 0 -p DSR -e 68 -c 2 -a 0 -i 8 -k RTR
+ -t 15.078686190 -s 0 -d 3 -p cbr -e 560 -c 2 -a 0 -i 0 -k RTR 
- -t 15.078686190 -s 0 -d 3 -p cbr -e 560 -c 2 -a 0 -i 0 -k RTR
h -t 15.078686190 -s 0 -d 3 -p cbr -e 560 -c 2 -a 0 -i 0 -k RTR
+ -t 15.079617691 -s 16 -d 18 -p DSR -e 68 -c 2 -a 0 -i 10 -k RTR 
- -t 15.079617691 -s 16 -d 18 -p DSR -e 68 -c 2 -a 0 -i 10 -k RTR
h -t 15.079617691 -s 16 -d 18 -p DSR -e 68 -c 2 -a 0 -i 10 -k RTR
+ -t 15.081073190 -s 3 -d 0 -p DSR -e 68 -c 2 -a 0 -i 6 -k RTR 
- -t 15.081073190 -s 3 -d 0 -p DSR -e 68 -c 2 -a 0 -i 6 -k RTR
h -t 15.081073190 -s 3 -d 0 -p DSR -e 68 -c 2 -a 0 -i 6 -k RTR
+ -t 15.081549447 -s 0 -d -1 -p cbr -e 512 -c 2 -a 0 -i 14 -k AGT 
- -t 15.081549447 -s 0 -d -1 -p cbr -e 512 -c 2 -a 0 -i 14 -k AGT
h -t 15.081549447 -s 0 -d -1 -p cbr -e 512 -c 2 -a 0 -i 14 -k AGT
+ -t 15.081549447 -s 0 -d 3 -p cbr -e 560 -c 2 -a 0 -i 14 -k RTR 
- -t 15.081549447 -s 0 -d 3 -p cbr -e 560 -c 2 -a 0 -i 14 -k RTR
h -t 15.081549447 -s 0 -d 3 -p cbr -e 560 -c 2 -a 0 -i 14 -k RTR
+ -t 15.082020238 -s 16 -d 17 -p DSR -e 76 -c 2 -a 0 -i 13 -k RTR 
- -t 15.082020238 -s 16 -d 17 -p DSR -e 76 -c 2 -a 0 -i 13 -k RTR
h -t 15.082020238 -s 16 -d 17 -p DSR -e 76 -c 2 -a 0 -i 13 -k RTR
+ -t 15.089231190 -s 3 -d 9 -p cbr -e 560 -c 2 -a 0 -i 0 -k RTR 
- -t 15.089231190 -s 3 -d 9 -p cbr -e 560 -c 2 -a 0 -i 0 -k RTR
h -t 15.089231190 -s 3 -d 9 -p cbr -e 560 -c 2 -a 0 -i 0 -k RTR
+ -t 15.095309190 -s 9 -d 19 -p cbr -e 560 -c 2 -a 0 -i 0 -k RTR 
- -t 15.095309190 -s 9 -d 19 -p cbr -e 560 -c 2 -a 0 -i 0 -k RTR
h -t 15.095309190 -s 9 -d 19 -p cbr -e 560 -c 2 -a 0 -i 0 -k RTR
+ -t 15.101427426 -s 19 -d 16 -p cbr -e 560 -c 2 -a 0 -i 0 -k RTR 
- -t 15.101427426 -s 19 -d 16 -p cbr -e 560 -c 2 -a 0 -i 0 -k RTR
h -t 15.101427426 -s 19 -d 16 -p cbr -e 560 -c 2 -a 0 -i 0 -k RTR
+ -t 15.103475624 -s 10 -d 4 -p DSR -e 60 -c 2 -a 0 -i 5 -k RTR 
- -t 15.103475624 -s 10 -d 4 -p DSR -e 60 -c 2 -a 0 -i 5 -k RTR
h -t 15.103475624 -s 10 -d 4 -p DSR -e 60 -c 2 -a 0 -i 5 -k RTR
+ -t 15.105573624 -s 4 -d 0 -p DSR -e 60 -c 2 -a 0 -i 5 -k RTR 
- -t 15.105573624 -s 4 -d 0 -p DSR -e 60 -c 2 -a 0 -i 5 -k RTR
h -t 15.105573624 -s 4 -d 0 -p DSR -e 60 -c 2 -a 0 -i 5 -k RTR
+ -t 15.108686190 -s 0 -d 3 -p cbr -e 560 -c 2 -a 0 -i 3 -k RTR 
- -t 15.108686190 -s 0 -d 3 -p cbr -e 560 -c 2 -a 0 -i 3 -k RTR
h -t 15.108686190 -s 0 -d 3 -p cbr -e 560 -c 2 -a 0 -i 3 -k RTR
+ -t 15.112478877 -s 0 -d -1 -p cbr -e 512 -c 2 -a 0 -i 15 -k AGT 
- -t 15.112478877 -s 0 -d -1 -p cbr -e 512 -c 2 -a 0 -i 15 -k AGT
h -t 15.112478877 -s 0 -d -1 -p cbr -e 512 -c 2 -a 0 -i 15 -k AGT
+ -t 15.112478877 -s 0 -d 4 -p cbr -e 556 -c 2 -a 0 -i 15 -k RTR 
- -t 15.112478877 -s 0 -d 4 -p cbr -e 556 -c 2 -a 0 -i 15 -k RTR
h -t 15.112478877 -s 0 -d 4 -p cbr -e 556 -c 2 -a 0 -i 15 -k RTR
+ -t 15.113968860 -s 3 -d 9 -p cbr -e 560 -c 2 -a 0 -i 14 -k RTR 
- -t 15.113968860 -s 3 -d 9 -p cbr -e 560 -c 2 -a 0 -i 14 -k RTR
h -t 15.113968860 -s 3 -d 9 -p cbr -e 560 -c 2 -a 0 -i 14 -k RTR
+ -t 15.120086193 -s 3 -d 9 -p cbr -e 560 -c 2 -a 0 -i 3 -k RTR 
- -t 15.120086193 -s 3 -d 9 -p cbr -e 560 -c 2 -a 0 -i 3 -k RTR
h -t 15.120086193 -s 3 -d 9 -p cbr -e 560 -c 2 -a 0 -i 3 -k RTR
+ -t 15.126124193 -s 9 -d 19 -p cbr -e 560 -c 2 -a 0 -i 14 -k RTR 
- -t 15.126124193 -s 9 -d 19 -p cbr -e 560 -c 2 -a 0 -i 14 -k RTR
h -t 15.126124193 -s 9 -d 19 -p cbr -e 560 -c 2 -a 0 -i 14 -k RTR
+ -t 15.132182429 -s 19 -d 16 -p cbr -e 560 -c 2 -a 0 -i 14 -k RTR 
- -t 15.132182429 -s 19 -d 16 -p cbr -e 560 -c 2 -a 0 -i 14 -k RTR
h -t 15.132182429 -s 19 -d 16 -p cbr -e 560 -c 2 -a 0 -i 14 -k RTR
r -t 15.138399429 -s 16 -d 16 -p cbr -e 512 -c 2 -a 0 -i 0 -k AGT
+ -t 15.140665429 -s 17 -d 13 -p DSR -e 76 -c 2 -a 0 -i 13 -k RTR 
- -t 15.140665429 -s 17 -d 13 -p DSR -e 76 -c 2 -a 0 -i 13 -k RTR
h -t 15.140665429 -s 17 -d 13 -p DSR -e 76 -c 2 -a 0 -i 13 -k RTR
r -t 15.148641257 -s 16 -d 16 -p cbr -e 512 -c 2 -a 0 -i 14 -k AGT
+ -t 15.156044748 -s 9 -d 19 -p cbr -e 560 -c 2 -a 0 -i 3 -k RTR 
- -t 15.156044748 -s 9 -d 19 -p cbr -e 560 -c 2 -a 0 -i 3 -k RTR
h -t 15.156044748 -s 9 -d 19 -p cbr -e 560 -c 2 -a 0 -i 3 -k RTR
+ -t 15.158430691 -s 18 -d 10 -p DSR -e 68 -c 2 -a 0 -i 10 -k RTR 
- -t 15.158430691 -s 18 -d 10 -p DSR -e 68 -c 2 -a 0 -i 10 -k RTR
h -t 15.158430691 -s 18 -d 10 -p DSR -e 68 -c 2 -a 0 -i 10 -k RTR
+ -t 15.160532439 -s 20 -d 7 -p DSR -e 68 -c 2 -a 0 -i 9 -k RTR 
- -t 15.160532439 -s 20 -d 7 -p DSR -e 68 -c 2 -a 0 -i 9 -k RTR
h -t 15.160532439 -s 20 -d 7 -p DSR -e 68 -c 2 -a 0 -i 9 -k RTR
+ -t 15.162675146 -s 14 -d 10 -p DSR -e 68 -c 2 -a 0 -i 7 -k RTR 
- -t 15.162675146 -s 14 -d 10 -p DSR -e 68 -c 2 -a 0 -i 7 -k RTR
h -t 15.162675146 -s 14 -d 10 -p DSR -e 68 -c 2 -a 0 -i 7 -k RTR
+ -t 15.164717715 -s 7 -d 3 -p DSR -e 68 -c 2 -a 0 -i 9 -k RTR 
- -t 15.164717715 -s 7 -d 3 -p DSR -e 68 -c 2 -a 0 -i 9 -k RTR
h -t 15.164717715 -s 7 -d 3 -p DSR -e 68 -c 2 -a 0 -i 9 -k RTR
+ -t 15.170726260 -s 19 -d 16 -p cbr -e 560 -c 2 -a 0 -i 3 -k RTR 
- -t 15.170726260 -s 19 -d 16 -p cbr -e 560 -c 2 -a 0 -i 3 -k RTR
h -t 15.170726260 -s 19 -d 16 -p cbr -e 560 -c 2 -a 0 -i 3 -k RTR
+ -t 15.174980915 -s 10 -d 4 -p DSR -e 68 -c 2 -a 0 -i 7 -k RTR 
- -t 15.174980915 -s 10 -d 4 -p DSR -e 68 -c 2 -a 0 -i 7 -k RTR
h -t 15.174980915 -s 10 -d 4 -p DSR -e 68 -c 2 -a 0 -i 7 -k RTR
+ -t 15.179353622 -s 0 -d -1 -p cbr -e 512 -c 2 -a 0 -i 16 -k AGT 
- -t 15.179353622 -s 0 -d -1 -p cbr -e 512 -c 2 -a 0 -i 16 -k AGT
h -t 15.179353622 -s 0 -d -1 -p cbr -e 512 -c 2 -a 0 -i 16 -k AGT
+ -t 15.179353622 -s 0 -d 4 -p cbr -e 556 -c 2 -a 0 -i 16 -k RTR 
- -t 15.179353622 -s 0 -d 4 -p cbr -e 556 -c 2 -a 0 -i 16 -k RTR
h -t 15.179353622 -s 0 -d 4 -p cbr -e 556 -c 2 -a 0 -i 16 -k RTR
r -t 15.181308224 -s 16 -d 16 -p cbr -e 512 -c 2 -a 0 -i 3 -k AGT
+ -t 15.183490890 -s 4 -d 0 -p DSR -e 68 -c 2 -a 0 -i 7 -k RTR 
- -t 15.183490890 -s 4 -d 0 -p DSR -e 68 -c 2 -a 0 -i 7 -k RTR
h -t 15.183490890 -s 4 -d 0 -p DSR -e 68 -c 2 -a 0 -i 7 -k RTR
+ -t 15.185613460 -s 3 -d 0 -p DSR -e 68 -c 2 -a 0 -i 9 -k RTR 
- -t 15.185613460 -s 3 -d 0 -p DSR -e 68 -c 2 -a 0 -i 9 -k RTR
h -t 15.185613460 -s 3 -d 0 -p DSR -e 68 -c 2 -a 0 -i 9 -k RTR
+ -t 15.192876306 -s 10 -d 4 -p DSR -e 68 -c 2 -a 0 -i 10 -k RTR 
- -t 15.192876306 -s 10 -d 4 -p DSR -e 68 -c 2 -a 0 -i 10 -k RTR
h -t 15.192876306 -s 10 -d 4 -p DSR -e 68 -c 2 -a 0 -i 10 -k RTR
+ -t 15.195478306 -s 4 -d 0 -p DSR -e 68 -c 2 -a 0 -i 10 -k RTR 
- -t 15.195478306 -s 4 -d 0 -p DSR -e 68 -c 2 -a 0 -i 10 -k RTR
h -t 15.195478306 -s 4 -d 0 -p DSR -e 68 -c 2 -a 0 -i 10 -k RTR
+ -t 15.204626778 -s 4 -d 10 -p cbr -e 556 -c 2 -a 0 -i 15 -k RTR 
- -t 15.204626778 -s 4 -d 10 -p cbr -e 556 -c 2 -a 0 -i 15 -k RTR
h -t 15.204626778 -s 4 -d 10 -p cbr -e 556 -c 2 -a 0 -i 15 -k RTR
+ -t 15.210712778 -s 10 -d 16 -p cbr -e 556 -c 2 -a 0 -i 15 -k RTR 
- -t 15.210712778 -s 10 -d 16 -p cbr -e 556 -c 2 -a 0 -i 15 -k RTR
h -t 15.210712778 -s 10 -d 16 -p cbr -e 556 -c 2 -a 0 -i 15 -k RTR
+ -t 15.215548440 -s 0 -d -1 -p cbr -e 512 -c 2 -a 0 -i 17 -k AGT 
- -t 15.215548440 -s 0 -d -1 -p cbr -e 512 -c 2 -a 0 -i 17 -k AGT
h -t 15.215548440 -s 0 -d -1 -p cbr -e 512 -c 2 -a 0 -i 17 -k AGT
+ -t 15.215548440 -s 0 -d 4 -p cbr -e 556 -c 2 -a 0 -i 17 -k RTR 
- -t 15.215548440 -s 0 -d 4 -p cbr -e 556 -c 2 -a 0 -i 17 -k RTR
h -t 15.215548440 -s 0 -d 4 -p cbr -e 556 -c 2 -a 0 -i 17 -k RTR
r -t 15.216838778 -s 16 -d 16 -p cbr -e 512 -c 2 -a 0 -i 15 -k AGT
+ -t 15.223530809 -s 4 -d 10 -p cbr -e 556 -c 2 -a 0 -i 16 -k RTR 
- -t 15.223530809 -s 4 -d 10 -p cbr -e 556 -c 2 -a 0 -i 16 -k RTR
h -t 15.223530809 -s 4 -d 10 -p cbr -e 556 -c 2 -a 0 -i 16 -k RTR
+ -t 15.229457791 -s 4 -d 10 -p cbr -e 556 -c 2 -a 0 -i 17 -k RTR 
- -t 15.229457791 -s 4 -d 10 -p cbr -e 556 -c 2 -a 0 -i 17 -k RTR
h -t 15.229457791 -s 4 -d 10 -p cbr -e 556 -c 2 -a 0 -i 17 -k RTR
+ -t 15.235843791 -s 10 -d 16 -p cbr -e 556 -c 2 -a 0 -i 16 -k RTR 
- -t 15.235843791 -s 10 -d 16 -p cbr -e 556 -c 2 -a 0 -i 16 -k RTR
h -t 15.235843791 -s 10 -d 16 -p cbr -e 556 -c 2 -a 0 -i 16 -k RTR
+ -t 15.241930458 -s 10 -d 16 -p cbr -e 556 -c 2 -a 0 -i 17 -k RTR 
- -t 15.241930458 -s 10 -d 16 -p cbr -e 556 -c 2 -a 0 -i 17 -k RTR
h -t 15.241930458 -s 10 -d 16 -p cbr -e 556 -c 2 -a 0 -i 17 -k RTR
r -t 15.248136458 -s 16 -d 16 -p cbr -e 512 -c 2 -a 0 -i 16 -k AGT
r -t 15.254343124 -s 16 -d 16 -p cbr -e 512 -c 2 -a 0 -i 17 -k AGT
+ -t 15.261339636 -s 13 -d 9 -p DSR -e 76 -c 2 -a 0 -i 13 -k RTR 
- -t 15.261339636 -s 13 -d 9 -p DSR -e 76 -c 2 -a 0 -i 13 -k RTR
h -t 15.261339636 -s 13 -d 9 -p DSR -e 76 -c 2 -a 0 -i 13 -k RTR
+ -t 15.263505873 -s 9 -d 3 -p DSR -e 76 -c 2 -a 0 -i 13 -k RTR 
- -t 15.263505873 -s 9 -d 3 -p DSR -e 76 -c 2 -a 0 -i 13 -k RTR
h -t 15.263505873 -s 9 -d 3 -p DSR -e 76 -c 2 -a 0 -i 13 -k RTR
+ -t 15.266151873 -s 3 -d 0 -p DSR -e 76 -c 2 -a 0 -i 13 -k RTR 
- -t 15.266151873 -s 3 -d 0 -p DSR -e 76 -c 2 -a 0 -i 13 -k RTR
h -t 15.266151873 -s 3 -d 0 -p DSR -e 76 -c 2 -a 0 -i 13 -k RTR
+ -t 15.280596477 -s 0 -d -1 -p cbr -e 512 -c 2 -a 0 -i 18 -k AGT 
- -t 15.280596477 -s 0 -d -1 -p cbr -e 512 -c 2 -a 0 -i 18 -k AGT
h -t 15.280596477 -s 0 -d -1 -p cbr -e 512 -c 2 -a 0 -i 18 -k AGT
+ -t 15.280596477 -s 0 -d 4 -p cbr -e 532 -c 2 -a 0 -i 18 -k RTR 
- -t 15.280596477 -s 0 -d 4 -p cbr -e 532 -c 2 -a 0 -i 18 -k RTR
h -t 15.280596477 -s 0 -d 4 -p cbr -e 532 -c 2 -a 0 -i 18 -k RTR
+ -t 15.286426713 -s 4 -d 10 -p cbr -e 532 -c 2 -a 0 -i 18 -k RTR 
- -t 15.286426713 -s 4 -d 10 -p cbr -e 532 -c 2 -a 0 -i 18 -k RTR
h -t 15.286426713 -s 4 -d 10 -p cbr -e 532 -c 2 -a 0 -i 18 -k RTR
+ -t 15.292240713 -s 10 -d 16 -p cbr -e 532 -c 2 -a 0 -i 18 -k RTR 
- -t 15.292240713 -s 10 -d 16 -p cbr -e 532 -c 2 -a 0 -i 18 -k RTR
h -t 15.292240713 -s 10 -d 16 -p cbr -e 532 -c 2 -a 0 -i 18 -k RTR
r -t 15.298434713 -s 16 -d 16 -p cbr -e 512 -c 2 -a 0 -i 18 -k AGT
+ -t 15.337455531 -s 0 -d -1 -p cbr -e 512 -c 2 -a 0 -i 19 -k AGT 
- -t 15.337455531 -s 0 -d -1 -p cbr -e 512 -c 2 -a 0 -i 19 -k AGT
h -t 15.337455531 -s 0 -d -1 -p cbr -e 512 -c 2 -a 0 -i 19 -k AGT
+ -t 15.337455531 -s 0 -d 4 -p cbr -e 532 -c 2 -a 0 -i 19 -k RTR 
- -t 15.337455531 -s 0 -d 4 -p cbr -e 532 -c 2 -a 0 -i 19 -k RTR
h -t 15.337455531 -s 0 -d 4 -p cbr -e 532 -c 2 -a 0 -i 19 -k RTR
+ -t 15.342985767 -s 4 -d 10 -p cbr -e 532 -c 2 -a 0 -i 19 -k RTR 
- -t 15.342985767 -s 4 -d 10 -p cbr -e 532 -c 2 -a 0 -i 19 -k RTR
h -t 15.342985767 -s 4 -d 10 -p cbr -e 532 -c 2 -a 0 -i 19 -k RTR
+ -t 15.349119767 -s 10 -d 16 -p cbr -e 532 -c 2 -a 0 -i 19 -k RTR 
- -t 15.349119767 -s 10 -d 16 -p cbr -e 532 -c 2 -a 0 -i 19 -k RTR
h -t 15.349119767 -s 10 -d 16 -p cbr -e 532 -c 2 -a 0 -i 19 -k RTR
r -t 15.354973767 -s 16 -d 16 -p cbr -e 512 -c 2 -a 0 -i 19 -k AGT
+ -t 15.368476283 -s 0 -d -1 -p cbr -e 512 -c 2 -a 0 -i 20 -k AGT 
- -t 15.368476283 -s 0 -d -1 -p cbr -e 512 -c 2 -a 0 -i 20 -k AGT
h -t 15.368476283 -s 0 -d -1 -p cbr -e 512 -c 2 -a 0 -i 20 -k AGT
+ -t 15.368476283 -s 0 -d 4 -p cbr -e 532 -c 2 -a 0 -i 20 -k RTR 
- -t 15.368476283 -s 0 -d 4 -p cbr -e 532 -c 2 -a 0 -i 20 -k RTR
h -t 15.368476283 -s 0 -d 4 -p cbr -e 532 -c 2 -a 0 -i 20 -k RTR
+ -t 15.374346519 -s 4 -d 10 -p cbr -e 532 -c 2 -a 0 -i 20 -k RTR 
- -t 15.374346519 -s 4 -d 10 -p cbr -e 532 -c 2 -a 0 -i 20 -k RTR
h -t 15.374346519 -s 4 -d 10 -p cbr -e 532 -c 2 -a 0 -i 20 -k RTR
+ -t 15.380520519 -s 10 -d 16 -p cbr -e 532 -c 2 -a 0 -i 20 -k RTR 
- -t 15.380520519 -s 10 -d 16 -p cbr -e 532 -c 2 -a 0 -i 20 -k RTR
h -t 15.380520519 -s 10 -d 16 -p cbr -e 532 -c 2 -a 0 -i 20 -k RTR
r -t 15.386434519 -s 16 -d 16 -p cbr -e 512 -c 2 -a 0 -i 20 -k AGT
+ -t 15.399672875 -s 0 -d -1 -p cbr -e 512 -c 2 -a 0 -i 21 -k AGT 
- -t 15.399672875 -s 0 -d -1 -p cbr -e 512 -c 2 -a 0 -i 21 -k AGT
h -t 15.399672875 -s 0 -d -1 -p cbr -e 512 -c 2 -a 0 -i 21 -k AGT
+ -t 15.399672875 -s 0 -d 4 -p cbr -e 532 -c 2 -a 0 -i 21 -k RTR 
- -t 15.399672875 -s 0 -d 4 -p cbr -e 532 -c 2 -a 0 -i 21 -k RTR
h -t 15.399672875 -s 0 -d 4 -p cbr -e 532 -c 2 -a 0 -i 21 -k RTR
+ -t 15.405683111 -s 4 -d 10 -p cbr -e 532 -c 2 -a 0 -i 21 -k RTR 
- -t 15.405683111 -s 4 -d 10 -p cbr -e 532 -c 2 -a 0 -i 21 -k RTR
h -t 15.405683111 -s 4 -d 10 -p cbr -e 532 -c 2 -a 0 -i 21 -k RTR
+ -t 15.411657111 -s 10 -d 16 -p cbr -e 532 -c 2 -a 0 -i 21 -k RTR 
- -t 15.411657111 -s 10 -d 16 -p cbr -e 532 -c 2 -a 0 -i 21 -k RTR
h -t 15.411657111 -s 10 -d 16 -p cbr -e 532 -c 2 -a 0 -i 21 -k RTR
r -t 15.417771111 -s 16 -d 16 -p cbr -e 512 -c 2 -a 0 -i 21 -k AGT
+ -t 15.457765175 -s 0 -d -1 -p cbr -e 512 -c 2 -a 0 -i 22 -k AGT 
- -t 15.457765175 -s 0 -d -1 -p cbr -e 512 -c 2 -a 0 -i 22 -k AGT
h -t 15.457765175 -s 0 -d -1 -p cbr -e 512 -c 2 -a 0 -i 22 -k AGT
+ -t 15.457765175 -s 0 -d 4 -p cbr -e 532 -c 2 -a 0 -i 22 -k RTR 
- -t 15.457765175 -s 0 -d 4 -p cbr -e 532 -c 2 -a 0 -i 22 -k RTR
h -t 15.457765175 -s 0 -d 4 -p cbr -e 532 -c 2 -a 0 -i 22 -k RTR
+ -t 15.463515411 -s 4 -d 10 -p cbr -e 532 -c 2 -a 0 -i 22 -k RTR 
- -t 15.463515411 -s 4 -d 10 -p cbr -e 532 -c 2 -a 0 -i 22 -k RTR
h -t 15.463515411 -s 4 -d 10 -p cbr -e 532 -c 2 -a 0 -i 22 -k RTR
+ -t 15.469349411 -s 10 -d 16 -p cbr -e 532 -c 2 -a 0 -i 22 -k RTR 
- -t 15.469349411 -s 10 -d 16 -p cbr -e 532 -c 2 -a 0 -i 22 -k RTR
h -t 15.469349411 -s 10 -d 16 -p cbr -e 532 -c 2 -a 0 -i 22 -k RTR
r -t 15.475523411 -s 16 -d 16 -p cbr -e 512 -c 2 -a 0 -i 22 -k AGT
+ -t 15.499087088 -s 0 -d -1 -p cbr -e 512 -c 2 -a 0 -i 23 -k AGT 
- -t 15.499087088 -s 0 -d -1 -p cbr -e 512 -c 2 -a 0 -i 23 -k AGT
h -t 15.499087088 -s 0 -d -1 -p cbr -e 512 -c 2 -a 0 -i 23 -k AGT
+ -t 15.499087088 -s 0 -d 4 -p cbr -e 532 -c 2 -a 0 -i 23 -k RTR 
- -t 15.499087088 -s 0 -d 4 -p cbr -e 532 -c 2 -a 0 -i 23 -k RTR
h -t 15.499087088 -s 0 -d 4 -p cbr -e 532 -c 2 -a 0 -i 23 -k RTR
+ -t 15.504997324 -s 4 -d 10 -p cbr -e 532 -c 2 -a 0 -i 23 -k RTR 
- -t 15.504997324 -s 4 -d 10 -p cbr -e 532 -c 2 -a 0 -i 23 -k RTR
h -t 15.504997324 -s 4 -d 10 -p cbr -e 532 -c 2 -a 0 -i 23 -k RTR
+ -t 15.510711324 -s 10 -d 16 -p cbr -e 532 -c 2 -a 0 -i 23 -k RTR 
- -t 15.510711324 -s 10 -d 16 -p cbr -e 532 -c 2 -a 0 -i 23 -k RTR
h -t 15.510711324 -s 10 -d 16 -p cbr -e 532 -c 2 -a 0 -i 23 -k RTR
r -t 15.516445324 -s 16 -d 16 -p cbr -e 512 -c 2 -a 0 -i 23 -k AGT
+ -t 15.541442807 -s 0 -d -1 -p cbr -e 512 -c 2 -a 0 -i 24 -k AGT 
- -t 15.541442807 -s 0 -d -1 -p cbr -e 512 -c 2 -a 0 -i 24 -k AGT
h -t 15.541442807 -s 0 -d -1 -p cbr -e 512 -c 2 -a 0 -i 24 -k AGT
+ -t 15.541442807 -s 0 -d 4 -p cbr -e 532 -c 2 -a 0 -i 24 -k RTR 
- -t 15.541442807 -s 0 -d 4 -p cbr -e 532 -c 2 -a 0 -i 24 -k RTR
h -t 15.541442807 -s 0 -d 4 -p cbr -e 532 -c 2 -a 0 -i 24 -k RTR
+ -t 15.547333043 -s 4 -d 10 -p cbr -e 532 -c 2 -a 0 -i 24 -k RTR 
- -t 15.547333043 -s 4 -d 10 -p cbr -e 532 -c 2 -a 0 -i 24 -k RTR
h -t 15.547333043 -s 4 -d 10 -p cbr -e 532 -c 2 -a 0 -i 24 -k RTR
+ -t 15.553207043 -s 10 -d 16 -p cbr -e 532 -c 2 -a 0 -i 24 -k RTR 
- -t 15.553207043 -s 10 -d 16 -p cbr -e 532 -c 2 -a 0 -i 24 -k RTR
h -t 15.553207043 -s 10 -d 16 -p cbr -e 532 -c 2 -a 0 -i 24 -k RTR
r -t 15.559401043 -s 16 -d 16 -p cbr -e 512 -c 2 -a 0 -i 24 -k AGT
+ -t 15.573162290 -s 0 -d -1 -p cbr -e 512 -c 2 -a 0 -i 25 -k AGT 
- -t 15.573162290 -s 0 -d -1 -p cbr -e 512 -c 2 -a 0 -i 25 -k AGT
h -t 15.573162290 -s 0 -d -1 -p cbr -e 512 -c 2 -a 0 -i 25 -k AGT
+ -t 15.573162290 -s 0 -d 4 -p cbr -e 532 -c 2 -a 0 -i 25 -k RTR 
- -t 15.573162290 -s 0 -d 4 -p cbr -e 532 -c 2 -a 0 -i 25 -k RTR
h -t 15.573162290 -s 0 -d 4 -p cbr -e 532 -c 2 -a 0 -i 25 -k RTR
+ -t 15.579032526 -s 4 -d 10 -p cbr -e 532 -c 2 -a 0 -i 25 -k RTR 
- -t 15.579032526 -s 4 -d 10 -p cbr -e 532 -c 2 -a 0 -i 25 -k RTR
h -t 15.579032526 -s 4 -d 10 -p cbr -e 532 -c 2 -a 0 -i 25 -k RTR
+ -t 15.585026526 -s 10 -d 16 -p cbr -e 532 -c 2 -a 0 -i 25 -k RTR 
- -t 15.585026526 -s 10 -d 16 -p cbr -e 532 -c 2 -a 0 -i 25 -k RTR
h -t 15.585026526 -s 10 -d 16 -p cbr -e 532 -c 2 -a 0 -i 25 -k RTR
r -t 15.590940526 -s 16 -d 16 -p cbr -e 512 -c 2 -a 0 -i 25 -k AGT
+ -t 15.646513879 -s 0 -d -1 -p cbr -e 512 -c 2 -a 0 -i 26 -k AGT 
- -t 15.646513879 -s 0 -d -1 -p cbr -e 512 -c 2 -a 0 -i 26 -k AGT
h -t 15.646513879 -s 0 -d -1 -p cbr -e 512 -c 2 -a 0 -i 26 -k AGT
+ -t 15.646513879 -s 0 -d 4 -p cbr -e 532 -c 2 -a 0 -i 26 -k RTR 
- -t 15.646513879 -s 0 -d 4 -p cbr -e 532 -c 2 -a 0 -i 26 -k RTR
h -t 15.646513879 -s 0 -d 4 -p cbr -e 532 -c 2 -a 0 -i 26 -k RTR
+ -t 15.652204115 -s 4 -d 10 -p cbr -e 532 -c 2 -a 0 -i 26 -k RTR 
- -t 15.652204115 -s 4 -d 10 -p cbr -e 532 -c 2 -a 0 -i 26 -k RTR
h -t 15.652204115 -s 4 -d 10 -p cbr -e 532 -c 2 -a 0 -i 26 -k RTR
+ -t 15.658378115 -s 10 -d 16 -p cbr -e 532 -c 2 -a 0 -i 26 -k RTR 
- -t 15.658378115 -s 10 -d 16 -p cbr -e 532 -c 2 -a 0 -i 26 -k RTR
h -t 15.658378115 -s 10 -d 16 -p cbr -e 532 -c 2 -a 0 -i 26 -k RTR
r -t 15.664532115 -s 16 -d 16 -p cbr -e 512 -c 2 -a 0 -i 26 -k AGT
+ -t 15.702029772 -s 0 -d -1 -p cbr -e 512 -c 2 -a 0 -i 27 -k AGT 
- -t 15.702029772 -s 0 -d -1 -p cbr -e 512 -c 2 -a 0 -i 27 -k AGT
h -t 15.702029772 -s 0 -d -1 -p cbr -e 512 -c 2 -a 0 -i 27 -k AGT
+ -t 15.702029772 -s 0 -d 4 -p cbr -e 532 -c 2 -a 0 -i 27 -k RTR 
- -t 15.702029772 -s 0 -d 4 -p cbr -e 532 -c 2 -a 0 -i 27 -k RTR
h -t 15.702029772 -s 0 -d 4 -p cbr -e 532 -c 2 -a 0 -i 27 -k RTR
+ -t 15.707940008 -s 4 -d 10 -p cbr -e 532 -c 2 -a 0 -i 27 -k RTR 
- -t 15.707940008 -s 4 -d 10 -p cbr -e 532 -c 2 -a 0 -i 27 -k RTR
h -t 15.707940008 -s 4 -d 10 -p cbr -e 532 -c 2 -a 0 -i 27 -k RTR
+ -t 15.713814008 -s 10 -d 16 -p cbr -e 532 -c 2 -a 0 -i 27 -k RTR 
- -t 15.713814008 -s 10 -d 16 -p cbr -e 532 -c 2 -a 0 -i 27 -k RTR
h -t 15.713814008 -s 10 -d 16 -p cbr -e 532 -c 2 -a 0 -i 27 -k RTR
r -t 15.720008008 -s 16 -d 16 -p cbr -e 512 -c 2 -a 0 -i 27 -k AGT
+ -t 15.738991342 -s 0 -d -1 -p cbr -e 512 -c 2 -a 0 -i 28 -k AGT 
- -t 15.738991342 -s 0 -d -1 -p cbr -e 512 -c 2 -a 0 -i 28 -k AGT
h -t 15.738991342 -s 0 -d -1 -p cbr -e 512 -c 2 -a 0 -i 28 -k AGT
+ -t 15.738991342 -s 0 -d 4 -p cbr -e 532 -c 2 -a 0 -i 28 -k RTR 
- -t 15.738991342 -s 0 -d 4 -p cbr -e 532 -c 2 -a 0 -i 28 -k RTR
h -t 15.738991342 -s 0 -d 4 -p cbr -e 532 -c 2 -a 0 -i 28 -k RTR
+ -t 15.744541578 -s 4 -d 10 -p cbr -e 532 -c 2 -a 0 -i 28 -k RTR 
- -t 15.744541578 -s 4 -d 10 -p cbr -e 532 -c 2 -a 0 -i 28 -k RTR
h -t 15.744541578 -s 4 -d 10 -p cbr -e 532 -c 2 -a 0 -i 28 -k RTR
+ -t 15.750655578 -s 10 -d 16 -p cbr -e 532 -c 2 -a 0 -i 28 -k RTR 
- -t 15.750655578 -s 10 -d 16 -p cbr -e 532 -c 2 -a 0 -i 28 -k RTR
h -t 15.750655578 -s 10 -d 16 -p cbr -e 532 -c 2 -a 0 -i 28 -k RTR
r -t 15.756769578 -s 16 -d 16 -p cbr -e 512 -c 2 -a 0 -i 28 -k AGT
+ -t 15.787040554 -s 0 -d -1 -p cbr -e 512 -c 2 -a 0 -i 29 -k AGT 
- -t 15.787040554 -s 0 -d -1 -p cbr -e 512 -c 2 -a 0 -i 29 -k AGT
h -t 15.787040554 -s 0 -d -1 -p cbr -e 512 -c 2 -a 0 -i 29 -k AGT
+ -t 15.787040554 -s 0 -d 4 -p cbr -e 532 -c 2 -a 0 -i 29 -k RTR 
- -t 15.787040554 -s 0 -d 4 -p cbr -e 532 -c 2 -a 0 -i 29 -k RTR
h -t 15.787040554 -s 0 -d 4 -p cbr -e 532 -c 2 -a 0 -i 29 -k RTR
+ -t 15.792930790 -s 4 -d 10 -p cbr -e 532 -c 2 -a 0 -i 29 -k RTR 
- -t 15.792930790 -s 4 -d 10 -p cbr -e 532 -c 2 -a 0 -i 29 -k RTR
h -t 15.792930790 -s 4 -d 10 -p cbr -e 532 -c 2 -a 0 -i 29 -k RTR
+ -t 15.799144790 -s 10 -d 16 -p cbr -e 532 -c 2 -a 0 -i 29 -k RTR 
- -t 15.799144790 -s 10 -d 16 -p cbr -e 532 -c 2 -a 0 -i 29 -k RTR
h -t 15.799144790 -s 10 -d 16 -p cbr -e 532 -c 2 -a 0 -i 29 -k RTR
r -t 15.805058790 -s 16 -d 16 -p cbr -e 512 -c 2 -a 0 -i 29 -k AGT
+ -t 15.853836292 -s 0 -d -1 -p cbr -e 512 -c 2 -a 0 -i 30 -k AGT 
- -t 15.853836292 -s 0 -d -1 -p cbr -e 512 -c 2 -a 0 -i 30 -k AGT
h -t 15.853836292 -s 0 -d -1 -p cbr -e 512 -c 2 -a 0 -i 30 -k AGT
+ -t 15.853836292 -s 0 -d 4 -p cbr -e 532 -c 2 -a 0 -i 30 -k RTR 
- -t 15.853836292 -s 0 -d 4 -p cbr -e 532 -c 2 -a 0 -i 30 -k RTR
h -t 15.853836292 -s 0 -d 4 -p cbr -e 532 -c 2 -a 0 -i 30 -k RTR
+ -t 15.859546528 -s 4 -d 10 -p cbr -e 532 -c 2 -a 0 -i 30 -k RTR 
- -t 15.859546528 -s 4 -d 10 -p cbr -e 532 -c 2 -a 0 -i 30 -k RTR
h -t 15.859546528 -s 4 -d 10 -p cbr -e 532 -c 2 -a 0 -i 30 -k RTR
+ -t 15.865260528 -s 10 -d 16 -p cbr -e 532 -c 2 -a 0 -i 30 -k RTR 
- -t 15.865260528 -s 10 -d 16 -p cbr -e 532 -c 2 -a 0 -i 30 -k RTR
h -t 15.865260528 -s 10 -d 16 -p cbr -e 532 -c 2 -a 0 -i 30 -k RTR
r -t 15.870974528 -s 16 -d 16 -p cbr -e 512 -c 2 -a 0 -i 30 -k AGT
+ -t 15.926825412 -s 0 -d -1 -p cbr -e 512 -c 2 -a 0 -i 31 -k AGT 
- -t 15.926825412 -s 0 -d -1 -p cbr -e 512 -c 2 -a 0 -i 31 -k AGT
h -t 15.926825412 -s 0 -d -1 -p cbr -e 512 -c 2 -a 0 -i 31 -k AGT
+ -t 15.926825412 -s 0 -d 4 -p cbr -e 532 -c 2 -a 0 -i 31 -k RTR 
- -t 15.926825412 -s 0 -d 4 -p cbr -e 532 -c 2 -a 0 -i 31 -k RTR
h -t 15.926825412 -s 0 -d 4 -p cbr -e 532 -c 2 -a 0 -i 31 -k RTR
+ -t 15.932375648 -s 4 -d 10 -p cbr -e 532 -c 2 -a 0 -i 31 -k RTR 
- -t 15.932375648 -s 4 -d 10 -p cbr -e 532 -c 2 -a 0 -i 31 -k RTR
h -t 15.932375648 -s 4 -d 10 -p cbr -e 532 -c 2 -a 0 -i 31 -k RTR
+ -t 15.938309648 -s 10 -d 16 -p cbr -e 532 -c 2 -a 0 -i 31 -k RTR 
- -t 15.938309648 -s 10 -d 16 -p cbr -e 532 -c 2 -a 0 -i 31 -k RTR
h -t 15.938309648 -s 10 -d 16 -p cbr -e 532 -c 2 -a 0 -i 31 -k RTR
r -t 15.944503648 -s 16 -d 16 -p cbr -e 512 -c 2 -a 0 -i 31 -k AGT
+ -t 15.956592601 -s 0 -d -1 -p cbr -e 512 -c 2 -a 0 -i 32 -k AGT 
- -t 15.956592601 -s 0 -d -1 -p cbr -e 512 -c 2 -a 0 -i 32 -k AGT
h -t 15.956592601 -s 0 -d -1 -p cbr -e 512 -c 2 -a 0 -i 32 -k AGT
+ -t 15.956592601 -s 0 -d 4 -p cbr -e 532 -c 2 -a 0 -i 32 -k RTR 
- -t 15.956592601 -s 0 -d 4 -p cbr -e 532 -c 2 -a 0 -i 32 -k RTR
h -t 15.956592601 -s 0 -d 4 -p cbr -e 532 -c 2 -a 0 -i 32 -k RTR
+ -t 15.962622837 -s 4 -d 10 -p cbr -e 532 -c 2 -a 0 -i 32 -k RTR 
- -t 15.962622837 -s 4 -d 10 -p cbr -e 532 -c 2 -a 0 -i 32 -k RTR
h -t 15.962622837 -s 4 -d 10 -p cbr -e 532 -c 2 -a 0 -i 32 -k RTR
+ -t 15.968676837 -s 10 -d 16 -p cbr -e 532 -c 2 -a 0 -i 32 -k RTR 
- -t 15.968676837 -s 10 -d 16 -p cbr -e 532 -c 2 -a 0 -i 32 -k RTR
h -t 15.968676837 -s 10 -d 16 -p cbr -e 532 -c 2 -a 0 -i 32 -k RTR
r -t 15.974970837 -s 16 -d 16 -p cbr -e 512 -c 2 -a 0 -i 32 -k AGT
+ -t 15.986790412 -s 0 -d -1 -p cbr -e 512 -c 2 -a 0 -i 33 -k AGT 
- -t 15.986790412 -s 0 -d -1 -p cbr -e 512 -c 2 -a 0 -i 33 -k AGT
h -t 15.986790412 -s 0 -d -1 -p cbr -e 512 -c 2 -a 0 -i 33 -k AGT
+ -t 15.986790412 -s 0 -d 4 -p cbr -e 532 -c 2 -a 0 -i 33 -k RTR 
- -t 15.986790412 -s 0 -d 4 -p cbr -e 532 -c 2 -a 0 -i 33 -k RTR
h -t 15.986790412 -s 0 -d 4 -p cbr -e 532 -c 2 -a 0 -i 33 -k RTR
+ -t 15.992300648 -s 4 -d 10 -p cbr -e 532 -c 2 -a 0 -i 33 -k RTR 