Sconfig 0.00000 tap: on snoop: rts? on errs? on
Sconfig 0.00000 salvage: on !bd replies? on
Sconfig 0.00000 grat error: on grat reply: on
Sconfig 0.00000 $reply for props: on ring 0 search: on
Sconfig 0.00000 using MOBICACHE
s 15.000000000 _0_ AGT  --- 0 tcp 40 [0 0 0 0] ------- [0:0 7:0 32 0] [0 0] 0 0
r 15.000000000 _0_ RTR  --- 0 tcp 40 [0 0 0 0] ------- [0:0 7:0 32 0] [0 0] 0 0
s 15.000000000 _1_ AGT  --- 2 tcp 40 [0 0 0 0] ------- [1:0 6:0 32 0] [0 0] 0 0
r 15.000000000 _1_ RTR  --- 2 tcp 40 [0 0 0 0] ------- [1:0 6:0 32 0] [0 0] 0 0
s 15.000000000 _0_ AGT  --- 4 tcp 40 [0 0 0 0] ------- [0:1 7:1 32 0] [0 0] 0 0
r 15.000000000 _0_ RTR  --- 4 tcp 40 [0 0 0 0] ------- [0:1 7:1 32 0] [0 0] 0 0
s 15.000000000 _3_ AGT  --- 6 tcp 40 [0 0 0 0] ------- [3:0 2:0 32 0] [0 0] 0 0
r 15.000000000 _3_ RTR  --- 6 tcp 40 [0 0 0 0] ------- [3:0 2:0 32 0] [0 0] 0 0
s 15.004020724 _0_ RTR  --- 1 DSR 32 [0 0 0 0] ------- [0:255 7:255 32 0] 1 [1 1] [0 1 0 0->0] [0 0 0 0->0]
s 15.004664693 _3_ RTR  --- 7 DSR 32 [0 0 0 0] ------- [3:255 2:255 32 0] 1 [1 1] [0 1 0 0->0] [0 0 0 0->0]
r 15.005053391 _3_ RTR  --- 1 DSR 32 [0 ffffffff 0 800] ------- [0:255 7:255 32 0] 1 [1 1] [0 1 0 0->0] [0 0 0 0->0]
r 15.005053391 _1_ RTR  --- 1 DSR 32 [0 ffffffff 0 800] ------- [0:255 7:255 32 0] 1 [1 1] [0 1 0 0->0] [0 0 0 0->0]
r 15.005856058 _0_ RTR  --- 7 DSR 32 [0 ffffffff 3 800] ------- [3:255 2:255 32 0] 1 [1 1] [0 1 0 0->0] [0 0 0 0->0]
r 15.005856058 _6_ RTR  --- 7 DSR 32 [0 ffffffff 3 800] ------- [3:255 2:255 32 0] 1 [1 1] [0 1 0 0->0] [0 0 0 0->0]
r 15.005856058 _4_ RTR  --- 7 DSR 32 [0 ffffffff 3 800] ------- [3:255 2:255 32 0] 1 [1 1] [0 1 0 0->0] [0 0 0 0->0]
s 15.009605526 _1_ RTR  --- 3 DSR 32 [0 0 0 0] ------- [1:255 6:255 32 0] 1 [1 1] [0 1 0 0->0] [0 0 0 0->0]
r 15.010598192 _0_ RTR  --- 3 DSR 32 [0 ffffffff 1 800] ------- [1:255 6:255 32 0] 1 [1 1] [0 1 0 0->0] [0 0 0 0->0]
r 15.010598192 _4_ RTR  --- 3 DSR 32 [0 ffffffff 1 800] ------- [1:255 6:255 32 0] 1 [1 1] [0 1 0 0->0] [0 0 0 0->0]
r 15.010598192 _2_ RTR  --- 3 DSR 32 [0 ffffffff 1 800] ------- [1:255 6:255 32 0] 1 [1 1] [0 1 0 0->0] [0 0 0 0->0]
s 15.050921248 _0_ RTR  --- 9 DSR 32 [0 0 0 0] ------- [0:255 7:255 32 0] 1 [1 2] [0 2 0 0->16] [0 0 0 0->0]
r 15.052173915 _3_ RTR  --- 9 DSR 32 [0 ffffffff 0 800] ------- [0:255 7:255 32 0] 1 [1 2] [0 2 0 0->16] [0 0 0 0->0]
r 15.052173915 _1_ RTR  --- 9 DSR 32 [0 ffffffff 0 800] ------- [0:255 7:255 32 0] 1 [1 2] [0 2 0 0->16] [0 0 0 0->0]
f 15.053333623 _1_ RTR  --- 9 DSR 48 [0 ffffffff 0 800] ------- [0:255 7:255 32 0] 2 [1 2] [0 2 0 0->16] [0 0 0 0->0]
r 15.054714290 _0_ RTR  --- 9 DSR 48 [0 ffffffff 1 800] ------- [0:255 7:255 32 0] 2 [1 2] [0 2 0 0->16] [0 0 0 0->0]
r 15.054714290 _4_ RTR  --- 9 DSR 48 [0 ffffffff 1 800] ------- [0:255 7:255 32 0] 2 [1 2] [0 2 0 0->16] [0 0 0 0->0]
r 15.054714290 _2_ RTR  --- 9 DSR 48 [0 ffffffff 1 800] ------- [0:255 7:255 32 0] 2 [1 2] [0 2 0 0->16] [0 0 0 0->0]
f 15.054841351 _2_ RTR  --- 9 DSR 68 [0 ffffffff 1 800] ------- [0:255 7:255 32 0] 3 [1 2] [0 2 0 0->16] [0 0 0 0->0]
r 15.056482018 _1_ RTR  --- 9 DSR 68 [0 ffffffff 2 800] ------- [0:255 7:255 32 0] 3 [1 2] [0 2 0 0->16] [0 0 0 0->0]
r 15.056482018 _5_ RTR  --- 9 DSR 68 [0 ffffffff 2 800] ------- [0:255 7:255 32 0] 3 [1 2] [0 2 0 0->16] [0 0 0 0->0]
f 15.060125340 _3_ RTR  --- 9 DSR 48 [0 ffffffff 0 800] ------- [0:255 7:255 32 0] 2 [1 2] [0 2 0 0->16] [0 0 0 0->0]
s 15.060905115 _3_ RTR  --- 11 DSR 32 [0 0 0 0] ------- [3:255 2:255 32 0] 1 [1 2] [0 2 0 0->16] [0 0 0 0->0]
r 15.061526007 _0_ RTR  --- 9 DSR 48 [0 ffffffff 3 800] ------- [0:255 7:255 32 0] 2 [1 2] [0 2 0 0->16] [0 0 0 0->0]
r 15.061526007 _6_ RTR  --- 9 DSR 48 [0 ffffffff 3 800] ------- [0:255 7:255 32 0] 2 [1 2] [0 2 0 0->16] [0 0 0 0->0]
r 15.061526007 _4_ RTR  --- 9 DSR 48 [0 ffffffff 3 800] ------- [0:255 7:255 32 0] 2 [1 2] [0 2 0 0->16] [0 0 0 0->0]
f 15.061832484 _4_ RTR  --- 9 DSR 68 [0 ffffffff 1 800] ------- [0:255 7:255 32 0] 3 [1 2] [0 2 0 0->16] [0 0 0 0->0]
f 15.061858250 _5_ RTR  --- 9 DSR 92 [0 ffffffff 2 800] ------- [0:255 7:255 32 0] 4 [1 2] [0 2 0 0->16] [0 0 0 0->0]
r 15.062508007 _0_ RTR  --- 11 DSR 32 [0 ffffffff 3 800] ------- [3:255 2:255 32 0] 1 [1 2] [0 2 0 0->16] [0 0 0 0->0]
r 15.062508007 _6_ RTR  --- 11 DSR 32 [0 ffffffff 3 800] ------- [3:255 2:255 32 0] 1 [1 2] [0 2 0 0->16] [0 0 0 0->0]
r 15.062508007 _4_ RTR  --- 11 DSR 32 [0 ffffffff 3 800] ------- [3:255 2:255 32 0] 1 [1 2] [0 2 0 0->16] [0 0 0 0->0]
r 15.063818673 _1_ RTR  --- 9 DSR 68 [0 ffffffff 4 800] ------- [0:255 7:255 32 0] 3 [1 2] [0 2 0 0->16] [0 0 0 0->0]
r 15.063818673 _3_ RTR  --- 9 DSR 68 [0 ffffffff 4 800] ------- [0:255 7:255 32 0] 3 [1 2] [0 2 0 0->16] [0 0 0 0->0]
r 15.063818673 _7_ RTR  --- 9 DSR 68 [0 ffffffff 4 800] ------- [0:255 7:255 32 0] 3 [1 2] [0 2 0 0->16] [0 0 0 0->0]
r 15.063818673 _5_ RTR  --- 9 DSR 68 [0 ffffffff 4 800] ------- [0:255 7:255 32 0] 3 [1 2] [0 2 0 0->16] [0 0 0 0->0]
f 15.064499690 _6_ RTR  --- 9 DSR 68 [0 ffffffff 3 800] ------- [0:255 7:255 32 0] 3 [1 2] [0 2 0 0->16] [0 0 0 0->0]
r 15.065581340 _2_ RTR  --- 9 DSR 92 [0 ffffffff 5 800] ------- [0:255 7:255 32 0] 4 [1 2] [0 2 0 0->16] [0 0 0 0->0]
r 15.065581340 _4_ RTR  --- 9 DSR 92 [0 ffffffff 5 800] ------- [0:255 7:255 32 0] 4 [1 2] [0 2 0 0->16] [0 0 0 0->0]
r 15.065581340 _8_ RTR  --- 9 DSR 92 [0 ffffffff 5 800] ------- [0:255 7:255 32 0] 4 [1 2] [0 2 0 0->16] [0 0 0 0->0]
r 15.067296831 _3_ RTR  --- 9 DSR 68 [0 ffffffff 6 800] ------- [0:255 7:255 32 0] 3 [1 2] [0 2 0 0->16] [0 0 0 0->0]
r 15.067296831 _7_ RTR  --- 9 DSR 68 [0 ffffffff 6 800] ------- [0:255 7:255 32 0] 3 [1 2] [0 2 0 0->16] [0 0 0 0->0]
f 15.068083898 _8_ RTR  --- 9 DSR 120 [0 ffffffff 5 800] ------- [0:255 7:255 32 0] 5 [1 2] [0 2 0 0->16] [0 0 0 0->0]
f 15.068148473 _4_ RTR  --- 11 DSR 48 [0 ffffffff 3 800] ------- [3:255 2:255 32 0] 2 [1 2] [0 2 0 0->16] [0 0 0 0->0]
f 15.069630274 _0_ RTR  --- 11 DSR 48 [0 ffffffff 3 800] ------- [3:255 2:255 32 0] 2 [1 2] [0 2 0 0->16] [0 0 0 0->0]
r 15.069800565 _5_ RTR  --- 9 DSR 120 [0 ffffffff 8 800] ------- [0:255 7:255 32 0] 5 [1 2] [0 2 0 0->16] [0 0 0 0->0]
r 15.069800565 _7_ RTR  --- 9 DSR 120 [0 ffffffff 8 800] ------- [0:255 7:255 32 0] 5 [1 2] [0 2 0 0->16] [0 0 0 0->0]
f 15.070993339 _6_ RTR  --- 11 DSR 48 [0 ffffffff 3 800] ------- [3:255 2:255 32 0] 2 [1 2] [0 2 0 0->16] [0 0 0 0->0]
r 15.071030941 _3_ RTR  --- 11 DSR 48 [0 ffffffff 0 800] ------- [3:255 2:255 32 0] 2 [1 2] [0 2 0 0->16] [0 0 0 0->0]
r 15.071030941 _1_ RTR  --- 11 DSR 48 [0 ffffffff 0 800] ------- [3:255 2:255 32 0] 2 [1 2] [0 2 0 0->16] [0 0 0 0->0]
s 15.071293151 _7_ RTR  --- 13 DSR 60 [0 0 0 0] ------- [7:255 0:255 254 6] 4 [0 2] [1 2 4 0->7] [0 0 0 0->0]
s 15.071967955 _7_ RTR  --- 12 DSR 60 [0 0 0 0] ------- [7:255 0:255 254 4] 4 [0 2] [1 2 4 0->7] [0 0 0 0->0]
r 15.072266274 _3_ RTR  --- 11 DSR 48 [0 ffffffff 6 800] ------- [3:255 2:255 32 0] 2 [1 2] [0 2 0 0->16] [0 0 0 0->0]
r 15.072266274 _7_ RTR  --- 11 DSR 48 [0 ffffffff 6 800] ------- [3:255 2:255 32 0] 2 [1 2] [0 2 0 0->16] [0 0 0 0->0]
s 15.072266274 _7_ RTR  --- 16 DSR 64 [0 0 0 0] ------- [7:255 3:255 255 6] 3 [0 2] [1 2 6 3->2] [0 0 0 0->0]
f 15.073905588 _1_ RTR  --- 11 DSR 68 [0 ffffffff 0 800] ------- [3:255 2:255 32 0] 3 [1 2] [0 2 0 0->16] [0 0 0 0->0]
r 15.074010274 _6_ RTR  --- 13 DSR 60 [13a 6 7 800] ------- [7:255 0:255 254 6] 4 [0 2] [1 2 4 0->7] [0 0 0 0->0]
f 15.074010274 _6_ RTR  --- 13 DSR 60 [13a 6 7 800] ------- [7:255 0:255 253 3] 4 [0 2] [1 2 4 0->7] [0 0 0 0->0]
r 15.075980941 _6_ RTR  --- 16 DSR 64 [13a 6 7 800] ------- [7:255 3:255 255 6] 3 [0 2] [1 2 6 3->2] [0 0 0 0->0]
f 15.075980941 _6_ RTR  --- 16 DSR 64 [13a 6 7 800] ------- [7:255 3:255 254 3] 3 [0 2] [1 2 6 3->2] [0 0 0 0->0]
s 15.077835975 _1_ RTR  --- 15 DSR 32 [0 0 0 0] ------- [1:255 6:255 32 0] 1 [1 2] [0 2 0 0->16] [0 0 0 0->0]
r 15.078178941 _3_ RTR  --- 13 DSR 60 [13a 3 6 800] ------- [7:255 0:255 253 3] 4 [0 2] [1 2 4 0->7] [0 0 0 0->0]
f 15.078178941 _3_ RTR  --- 13 DSR 60 [13a 3 6 800] ------- [7:255 0:255 252 0] 4 [0 2] [1 2 4 0->7] [0 0 0 0->0]
s 15.079284951 _7_ RTR  --- 14 DSR 76 [0 0 0 0] ------- [7:255 0:255 254 8] 6 [0 2] [1 2 6 0->7] [0 0 0 0->0]
r 15.080136941 _0_ RTR  --- 13 DSR 60 [13a 0 3 800] ------- [7:255 0:255 252 0] 4 [0 2] [1 2 4 0->7] [0 0 0 0->0]
SFESTs 15.080136941 _0_ 0 [0 -> 7] 1(1) to 3 [0 |3 6 7 ]
SFESTs 15.080136941 _0_ 4 [0 -> 7] 1(1) to 3 [0 |3 6 7 ]
s 15.080136941 _0_ RTR  --- 0 tcp 84 [0 0 0 0] ------- [0:0 7:0 32 3] [0 0] 0 0
r 15.082386941 _3_ RTR  --- 0 tcp 84 [13a 3 0 800] ------- [0:0 7:0 32 3] [0 0] 1 0
f 15.082386941 _3_ RTR  --- 0 tcp 84 [13a 3 0 800] ------- [0:0 7:0 31 6] [0 0] 1 0
r 15.084576941 _6_ RTR  --- 0 tcp 84 [13a 6 3 800] ------- [0:0 7:0 31 6] [0 0] 2 0
f 15.084576941 _6_ RTR  --- 0 tcp 84 [13a 6 3 800] ------- [0:0 7:0 30 7] [0 0] 2 0
r 15.086586941 _3_ RTR  --- 16 DSR 64 [13a 3 6 800] ------- [7:255 3:255 254 3] 3 [0 2] [1 2 6 3->2] [0 0 0 0->0]
SFESTs 15.086586941 _3_ 6 [3 -> 2] 1(1) to 6 [3 |6 7 8 5 2 ]
s 15.086586941 _3_ RTR  --- 6 tcp 92 [0 0 0 0] ------- [3:0 2:0 32 6] [0 0] 0 0
r 15.087941884 _1_ RTR  --- 11 DSR 48 [0 ffffffff 4 800] ------- [3:255 2:255 32 0] 2 [1 2] [0 2 0 0->16] [0 0 0 0->0]
r 15.087941884 _3_ RTR  --- 11 DSR 48 [0 ffffffff 4 800] ------- [3:255 2:255 32 0] 2 [1 2] [0 2 0 0->16] [0 0 0 0->0]
r 15.087941884 _7_ RTR  --- 11 DSR 48 [0 ffffffff 4 800] ------- [3:255 2:255 32 0] 2 [1 2] [0 2 0 0->16] [0 0 0 0->0]
r 15.087941884 _5_ RTR  --- 11 DSR 48 [0 ffffffff 4 800] ------- [3:255 2:255 32 0] 2 [1 2] [0 2 0 0->16] [0 0 0 0->0]
f 15.089754054 _5_ RTR  --- 11 DSR 68 [0 ffffffff 4 800] ------- [3:255 2:255 32 0] 3 [1 2] [0 2 0 0->16] [0 0 0 0->0]
r 15.090772827 _4_ RTR  --- 12 DSR 60 [13a 4 7 800] ------- [7:255 0:255 254 4] 4 [0 2] [1 2 4 0->7] [0 0 0 0->0]
f 15.090772827 _4_ RTR  --- 12 DSR 60 [13a 4 7 800] ------- [7:255 0:255 253 1] 4 [0 2] [1 2 4 0->7] [0 0 0 0->0]
r 15.093057103 _6_ RTR  --- 6 tcp 92 [13a 6 3 800] ------- [3:0 2:0 32 6] [0 0] 1 0
f 15.093057103 _6_ RTR  --- 6 tcp 92 [13a 6 3 800] ------- [3:0 2:0 31 7] [0 0] 1 0
r 15.095227103 _7_ RTR  --- 0 tcp 84 [13a 7 6 800] ------- [0:0 7:0 30 7] [0 0] 3 0
r 15.095227103 _7_ AGT  --- 0 tcp 40 [13a 7 6 800] ------- [0:0 7:0 30 7] [0 0] 3 0
s 15.095227103 _7_ AGT  --- 19 ack 40 [0 0 0 0] ------- [7:0 0:0 32 0] [0 0] 0 0
r 15.095227103 _7_ RTR  --- 19 ack 40 [0 0 0 0] ------- [7:0 0:0 32 0] [0 0] 0 0
SFESTs 15.095227103 _7_ 19 [7 -> 0] 1(1) to 4 [7 |4 1 0 ]
s 15.095227103 _7_ RTR  --- 19 ack 84 [0 0 0 0] ------- [7:0 0:0 32 4] [0 0] 0 0
r 15.097313103 _8_ RTR  --- 14 DSR 76 [13a 8 7 800] ------- [7:255 0:255 254 8] 6 [0 2] [1 2 6 0->7] [0 0 0 0->0]
f 15.097313103 _8_ RTR  --- 14 DSR 76 [13a 8 7 800] ------- [7:255 0:255 253 5] 6 [0 2] [1 2 6 0->7] [0 0 0 0->0]
r 15.098868046 _2_ RTR  --- 11 DSR 68 [0 ffffffff 5 800] ------- [3:255 2:255 32 0] 3 [1 2] [0 2 0 0->16] [0 0 0 0->0]
r 15.098868046 _4_ RTR  --- 11 DSR 68 [0 ffffffff 5 800] ------- [3:255 2:255 32 0] 3 [1 2] [0 2 0 0->16] [0 0 0 0->0]
r 15.098868046 _8_ RTR  --- 11 DSR 68 [0 ffffffff 5 800] ------- [3:255 2:255 32 0] 3 [1 2] [0 2 0 0->16] [0 0 0 0->0]
f 15.099164101 _8_ RTR  --- 11 DSR 92 [0 ffffffff 5 800] ------- [3:255 2:255 32 0] 4 [1 2] [0 2 0 0->16] [0 0 0 0->0]
r 15.100940046 _5_ RTR  --- 14 DSR 76 [13a 5 8 800] ------- [7:255 0:255 253 5] 6 [0 2] [1 2 6 0->7] [0 0 0 0->0]
f 15.100940046 _5_ RTR  --- 14 DSR 76 [13a 5 8 800] ------- [7:255 0:255 252 2] 6 [0 2] [1 2 6 0->7] [0 0 0 0->0]
r 15.102557379 _5_ RTR  --- 11 DSR 92 [0 ffffffff 8 800] ------- [3:255 2:255 32 0] 4 [1 2] [0 2 0 0->16] [0 0 0 0->0]
r 15.102557379 _7_ RTR  --- 11 DSR 92 [0 ffffffff 8 800] ------- [3:255 2:255 32 0] 4 [1 2] [0 2 0 0->16] [0 0 0 0->0]
r 15.104393379 _4_ RTR  --- 19 ack 84 [13a 4 7 800] ------- [7:0 0:0 32 4] [0 0] 1 0
f 15.104393379 _4_ RTR  --- 19 ack 84 [13a 4 7 800] ------- [7:0 0:0 31 1] [0 0] 1 0
s 15.104442744 _2_ RTR  --- 20 DSR 60 [0 0 0 0] ------- [2:255 3:255 254 5] 4 [0 2] [1 2 4 3->2] [0 0 0 0->0]
r 15.105808712 _0_ RTR  --- 11 DSR 68 [0 ffffffff 1 800] ------- [3:255 2:255 32 0] 3 [1 2] [0 2 0 0->16] [0 0 0 0->0]
r 15.105808712 _4_ RTR  --- 11 DSR 68 [0 ffffffff 1 800] ------- [3:255 2:255 32 0] 3 [1 2] [0 2 0 0->16] [0 0 0 0->0]
r 15.105808712 _2_ RTR  --- 11 DSR 68 [0 ffffffff 1 800] ------- [3:255 2:255 32 0] 3 [1 2] [0 2 0 0->16] [0 0 0 0->0]
r 15.107472712 _1_ RTR  --- 12 DSR 60 [13a 1 4 800] ------- [7:255 0:255 253 1] 4 [0 2] [1 2 4 0->7] [0 0 0 0->0]
f 15.107472712 _1_ RTR  --- 12 DSR 60 [13a 1 4 800] ------- [7:255 0:255 252 0] 4 [0 2] [1 2 4 0->7] [0 0 0 0->0]
r 15.109500989 _5_ RTR  --- 20 DSR 60 [13a 5 2 800] ------- [2:255 3:255 254 5] 4 [0 2] [1 2 4 3->2] [0 0 0 0->0]
f 15.109500989 _5_ RTR  --- 20 DSR 60 [13a 5 2 800] ------- [2:255 3:255 253 4] 4 [0 2] [1 2 4 3->2] [0 0 0 0->0]
s 15.110136941 _0_ RTR  --- 4 tcp 84 [0 0 0 0] ------- [0:1 7:1 32 3] [0 0] 0 0
s 15.110807978 _2_ RTR  --- 21 DSR 60 [0 0 0 0] ------- [2:255 3:255 254 1] 4 [0 2] [1 2 4 3->2] [0 0 0 0->0]
r 15.111998637 _2_ RTR  --- 14 DSR 76 [13a 2 5 800] ------- [7:255 0:255 252 2] 6 [0 2] [1 2 6 0->7] [0 0 0 0->0]
f 15.111998637 _2_ RTR  --- 14 DSR 76 [13a 2 5 800] ------- [7:255 0:255 251 1] 6 [0 2] [1 2 6 0->7] [0 0 0 0->0]
r 15.114056637 _1_ RTR  --- 21 DSR 60 [13a 1 2 800] ------- [2:255 3:255 254 1] 4 [0 2] [1 2 4 3->2] [0 0 0 0->0]
f 15.114056637 _1_ RTR  --- 21 DSR 60 [13a 1 2 800] ------- [2:255 3:255 253 0] 4 [0 2] [1 2 4 3->2] [0 0 0 0->0]
r 15.116463303 _1_ RTR  --- 14 DSR 76 [13a 1 2 800] ------- [7:255 0:255 251 1] 6 [0 2] [1 2 6 0->7] [0 0 0 0->0]
f 15.116463303 _1_ RTR  --- 14 DSR 76 [13a 1 2 800] ------- [7:255 0:255 250 0] 6 [0 2] [1 2 6 0->7] [0 0 0 0->0]
r 15.117579970 _0_ RTR  --- 15 DSR 32 [0 ffffffff 1 800] ------- [1:255 6:255 32 0] 1 [1 2] [0 2 0 0->16] [0 0 0 0->0]
r 15.117579970 _4_ RTR  --- 15 DSR 32 [0 ffffffff 1 800] ------- [1:255 6:255 32 0] 1 [1 2] [0 2 0 0->16] [0 0 0 0->0]
r 15.117579970 _2_ RTR  --- 15 DSR 32 [0 ffffffff 1 800] ------- [1:255 6:255 32 0] 1 [1 2] [0 2 0 0->16] [0 0 0 0->0]
s 15.117579970 _0_ RTR  --- 22 DSR 52 [0 0 0 0] ------- [0:255 1:255 255 1] 2 [0 2] [1 2 4 1->6] [0 0 0 0->0]
s 15.117579970 _4_ RTR  --- 23 DSR 52 [0 0 0 0] ------- [4:255 1:255 255 1] 2 [0 2] [1 2 4 1->6] [0 0 0 0->0]
r 15.119391303 _0_ RTR  --- 14 DSR 76 [13a 0 1 800] ------- [7:255 0:255 250 0] 6 [0 2] [1 2 6 0->7] [0 0 0 0->0]
r 15.121861303 _3_ RTR  --- 4 tcp 84 [13a 3 0 800] ------- [0:1 7:1 32 3] [0 0] 1 0
f 15.121861303 _3_ RTR  --- 4 tcp 84 [13a 3 0 800] ------- [0:1 7:1 31 6] [0 0] 1 0
r 15.124231303 _6_ RTR  --- 4 tcp 84 [13a 6 3 800] ------- [0:1 7:1 31 6] [0 0] 2 0
f 15.124231303 _6_ RTR  --- 4 tcp 84 [13a 6 3 800] ------- [0:1 7:1 30 7] [0 0] 2 0
f 15.125073555 _2_ RTR  --- 15 DSR 48 [0 ffffffff 1 800] ------- [1:255 6:255 32 0] 2 [1 2] [0 2 0 0->16] [0 0 0 0->0]
r 15.126826246 _1_ RTR  --- 19 ack 84 [13a 1 4 800] ------- [7:0 0:0 31 1] [0 0] 2 0
f 15.126826246 _1_ RTR  --- 19 ack 84 [13a 1 4 800] ------- [7:0 0:0 30 0] [0 0] 2 0
SFESTs 15.128375940 _1_ 2 [1 -> 6] 1(1) to 0 [1 |0 3 6 ]
s 15.128375940 _1_ RTR  --- 2 tcp 84 [0 0 0 0] ------- [1:0 6:0 32 0] [0 0] 0 0
r 15.128864246 _0_ RTR  --- 21 DSR 60 [13a 0 1 800] ------- [2:255 3:255 253 0] 4 [0 2] [1 2 4 3->2] [0 0 0 0->0]
f 15.128864246 _0_ RTR  --- 21 DSR 60 [13a 0 1 800] ------- [2:255 3:255 252 3] 4 [0 2] [1 2 4 3->2] [0 0 0 0->0]
r 15.130878246 _1_ RTR  --- 22 DSR 52 [13a 1 0 800] ------- [0:255 1:255 255 1] 2 [0 2] [1 2 4 1->6] [0 0 0 0->0]
r 15.132836246 _0_ RTR  --- 12 DSR 60 [13a 0 1 800] ------- [7:255 0:255 252 0] 4 [0 2] [1 2 4 0->7] [0 0 0 0->0]
r 15.134854246 _3_ RTR  --- 21 DSR 60 [13a 3 0 800] ------- [2:255 3:255 252 3] 4 [0 2] [1 2 4 3->2] [0 0 0 0->0]
r 15.137178913 _7_ RTR  --- 6 tcp 92 [13a 7 6 800] ------- [3:0 2:0 31 7] [0 0] 2 0
f 15.137178913 _7_ RTR  --- 6 tcp 92 [13a 7 6 800] ------- [3:0 2:0 30 8] [0 0] 2 0
r 15.139729579 _7_ RTR  --- 4 tcp 84 [13a 7 6 800] ------- [0:1 7:1 30 7] [0 0] 3 0
r 15.139729579 _7_ AGT  --- 4 tcp 40 [13a 7 6 800] ------- [0:1 7:1 30 7] [0 0] 3 0
s 15.139729579 _7_ AGT  --- 24 ack 40 [0 0 0 0] ------- [7:1 0:1 32 0] [0 0] 0 0
r 15.139729579 _7_ RTR  --- 24 ack 40 [0 0 0 0] ------- [7:1 0:1 32 0] [0 0] 0 0
SFESTs 15.139729579 _7_ 24 [7 -> 0] 1(1) to 4 [7 |4 1 0 ]
s 15.139729579 _7_ RTR  --- 24 ack 84 [0 0 0 0] ------- [7:1 0:1 32 4] [0 0] 0 0
r 15.142143579 _8_ RTR  --- 6 tcp 92 [13a 8 7 800] ------- [3:0 2:0 30 8] [0 0] 3 0
f 15.142143579 _8_ RTR  --- 6 tcp 92 [13a 8 7 800] ------- [3:0 2:0 29 5] [0 0] 3 0
r 15.144251856 _4_ RTR  --- 20 DSR 60 [13a 4 5 800] ------- [2:255 3:255 253 4] 4 [0 2] [1 2 4 3->2] [0 0 0 0->0]
f 15.144251856 _4_ RTR  --- 20 DSR 60 [13a 4 5 800] ------- [2:255 3:255 252 3] 4 [0 2] [1 2 4 3->2] [0 0 0 0->0]
r 15.146532132 _0_ RTR  --- 19 ack 84 [13a 0 1 800] ------- [7:0 0:0 30 0] [0 0] 3 0
r 15.146532132 _0_ AGT  --- 19 ack 40 [13a 0 1 800] ------- [7:0 0:0 30 0] [0 0] 3 0
s 15.146532132 _0_ AGT  --- 25 tcp 1040 [0 0 0 0] ------- [0:0 7:0 32 0] [1 0] 0 0
r 15.146532132 _0_ RTR  --- 25 tcp 1040 [0 0 0 0] ------- [0:0 7:0 32 0] [1 0] 0 0
SFESTs 15.146532132 _0_ 25 [0 -> 7] 1(1) to 3 [0 |3 6 7 ]
s 15.146532132 _0_ AGT  --- 26 tcp 1040 [0 0 0 0] ------- [0:0 7:0 32 0] [2 0] 0 0
r 15.146532132 _0_ RTR  --- 26 tcp 1040 [0 0 0 0] ------- [0:0 7:0 32 0] [2 0] 0 0
SFs 15.146532132 _0_ 26 [0 -> 7] 1(0) to 3 
s 15.146532132 _0_ RTR  --- 25 tcp 1084 [0 0 0 0] ------- [0:0 7:0 32 3] [1 0] 0 0
s 15.146532132 _0_ RTR  --- 26 tcp 1060 [0 0 0 0] ------- [0:0 7:0 32 3] [2 0] 0 0
r 15.148742798 _0_ RTR  --- 2 tcp 84 [13a 0 1 800] ------- [1:0 6:0 32 0] [0 0] 1 0
f 15.148742798 _0_ RTR  --- 2 tcp 84 [13a 0 1 800] ------- [1:0 6:0 31 3] [0 0] 1 0
r 15.152147622 _5_ RTR  --- 6 tcp 92 [13a 5 8 800] ------- [3:0 2:0 29 5] [0 0] 4 0
f 15.152147622 _5_ RTR  --- 6 tcp 92 [13a 5 8 800] ------- [3:0 2:0 28 2] [0 0] 4 0
r 15.154406289 _1_ RTR  --- 23 DSR 52 [13a 1 4 800] ------- [4:255 1:255 255 1] 2 [0 2] [1 2 4 1->6] [0 0 0 0->0]
r 15.156985232 _2_ RTR  --- 6 tcp 92 [13a 2 5 800] ------- [3:0 2:0 28 2] [0 0] 5 0
r 15.156985232 _2_ AGT  --- 6 tcp 40 [13a 2 5 800] ------- [3:0 2:0 28 2] [0 0] 5 0
s 15.156985232 _2_ AGT  --- 27 ack 40 [0 0 0 0] ------- [2:0 3:0 32 0] [0 0] 0 0
r 15.156985232 _2_ RTR  --- 27 ack 40 [0 0 0 0] ------- [2:0 3:0 32 0] [0 0] 0 0
SFESTs 15.156985232 _2_ 27 [2 -> 3] 1(1) to 5 [2 |5 4 3 ]
s 15.156985232 _2_ RTR  --- 27 ack 84 [0 0 0 0] ------- [2:0 3:0 32 5] [0 0] 0 0
r 15.159355232 _5_ RTR  --- 27 ack 84 [13a 5 2 800] ------- [2:0 3:0 32 5] [0 0] 1 0
f 15.159355232 _5_ RTR  --- 27 ack 84 [13a 5 2 800] ------- [2:0 3:0 31 4] [0 0] 1 0
r 15.161525232 _4_ RTR  --- 27 ack 84 [13a 4 5 800] ------- [2:0 3:0 31 4] [0 0] 2 0
f 15.161525232 _4_ RTR  --- 27 ack 84 [13a 4 5 800] ------- [2:0 3:0 30 3] [0 0] 2 0
r 15.163683232 _3_ RTR  --- 20 DSR 60 [13a 3 4 800] ------- [2:255 3:255 252 3] 4 [0 2] [1 2 4 3->2] [0 0 0 0->0]
r 15.166318175 _4_ RTR  --- 24 ack 84 [13a 4 7 800] ------- [7:1 0:1 32 4] [0 0] 1 0
f 15.166318175 _4_ RTR  --- 24 ack 84 [13a 4 7 800] ------- [7:1 0:1 31 1] [0 0] 1 0
r 15.168488175 _3_ RTR  --- 27 ack 84 [13a 3 4 800] ------- [2:0 3:0 30 3] [0 0] 3 0
r 15.168488175 _3_ AGT  --- 27 ack 40 [13a 3 4 800] ------- [2:0 3:0 30 3] [0 0] 3 0
s 15.168488175 _3_ AGT  --- 28 tcp 1040 [0 0 0 0] ------- [3:0 2:0 32 0] [1 0] 0 0
r 15.168488175 _3_ RTR  --- 28 tcp 1040 [0 0 0 0] ------- [3:0 2:0 32 0] [1 0] 0 0
SFESTs 15.168488175 _3_ 28 [3 -> 2] 3(1) to 0 [3 |0 1 2 ]
s 15.168488175 _3_ AGT  --- 29 tcp 1040 [0 0 0 0] ------- [3:0 2:0 32 0] [2 0] 0 0
r 15.168488175 _3_ RTR  --- 29 tcp 1040 [0 0 0 0] ------- [3:0 2:0 32 0] [2 0] 0 0
SFESTs 15.168488175 _3_ 29 [3 -> 2] 3(1) to 0 [3 |0 1 2 ]
s 15.168488175 _3_ RTR  --- 28 tcp 1084 [0 0 0 0] ------- [3:0 2:0 32 0] [1 0] 0 0
s 15.168488175 _3_ RTR  --- 29 tcp 1084 [0 0 0 0] ------- [3:0 2:0 32 0] [2 0] 0 0
r 15.178958175 _0_ RTR  --- 28 tcp 1084 [13a 0 3 800] ------- [3:0 2:0 32 0] [1 0] 1 0
f 15.178958175 _0_ RTR  --- 28 tcp 1084 [13a 0 3 800] ------- [3:0 2:0 31 1] [1 0] 1 0
r 15.189568841 _0_ RTR  --- 29 tcp 1084 [13a 0 3 800] ------- [3:0 2:0 32 0] [2 0] 1 0
f 15.189568841 _0_ RTR  --- 29 tcp 1084 [13a 0 3 800] ------- [3:0 2:0 31 1] [2 0] 1 0
r 15.192203784 _1_ RTR  --- 24 ack 84 [13a 1 4 800] ------- [7:1 0:1 31 1] [0 0] 2 0
f 15.192203784 _1_ RTR  --- 24 ack 84 [13a 1 4 800] ------- [7:1 0:1 30 0] [0 0] 2 0
r 15.202464060 _3_ RTR  --- 25 tcp 1084 [13a 3 0 800] ------- [0:0 7:0 32 3] [1 0] 1 0
f 15.202464060 _3_ RTR  --- 25 tcp 1084 [13a 3 0 800] ------- [0:0 7:0 31 6] [1 0] 1 0
r 15.213054060 _6_ RTR  --- 25 tcp 1084 [13a 6 3 800] ------- [0:0 7:0 31 6] [1 0] 2 0
f 15.213054060 _6_ RTR  --- 25 tcp 1084 [13a 6 3 800] ------- [0:0 7:0 30 7] [1 0] 2 0
r 15.223504060 _7_ RTR  --- 25 tcp 1084 [13a 7 6 800] ------- [0:0 7:0 30 7] [1 0] 3 0
r 15.223504060 _7_ AGT  --- 25 tcp 1040 [13a 7 6 800] ------- [0:0 7:0 30 7] [1 0] 3 0
s 15.223504060 _7_ AGT  --- 30 ack 40 [0 0 0 0] ------- [7:0 0:0 32 0] [1 0] 0 0
r 15.223504060 _7_ RTR  --- 30 ack 40 [0 0 0 0] ------- [7:0 0:0 32 0] [1 0] 0 0
SFESTs 15.223504060 _7_ 30 [7 -> 0] 1(1) to 4 [7 |4 1 0 ]
s 15.223504060 _7_ RTR  --- 30 ack 84 [0 0 0 0] ------- [7:0 0:0 32 4] [1 0] 0 0
r 15.226927042 _4_ RTR  --- 30 ack 84 [13a 4 7 800] ------- [7:0 0:0 32 4] [1 0] 1 0
f 15.226927042 _4_ RTR  --- 30 ack 84 [13a 4 7 800] ------- [7:0 0:0 31 1] [1 0] 1 0
r 15.244765870 _3_ RTR  --- 26 tcp 1060 [13a 3 0 800] ------- [0:0 7:0 32 3] [2 0] 1 0
SFf 15.244765870 _3_ 26 [0 -> 7] 1 to 6
f 15.244765870 _3_ RTR  --- 26 tcp 1060 [13a 3 0 800] ------- [0:0 7:0 31 6] [2 0] 1 0
r 15.247096537 _3_ RTR  --- 2 tcp 84 [13a 3 0 800] ------- [1:0 6:0 31 3] [0 0] 2 0
f 15.247096537 _3_ RTR  --- 2 tcp 84 [13a 3 0 800] ------- [1:0 6:0 30 6] [0 0] 2 0
r 15.257334537 _6_ RTR  --- 26 tcp 1060 [13a 6 3 800] ------- [0:0 7:0 31 6] [2 0] 2 0
SFf 15.257334537 _6_ 26 [0 -> 7] 1 to 7
f 15.257334537 _6_ RTR  --- 26 tcp 1060 [13a 6 3 800] ------- [0:0 7:0 30 7] [2 0] 2 0
r 15.259565204 _6_ RTR  --- 2 tcp 84 [13a 6 3 800] ------- [1:0 6:0 30 6] [0 0] 3 0
r 15.259565204 _6_ AGT  --- 2 tcp 40 [13a 6 3 800] ------- [1:0 6:0 30 6] [0 0] 3 0
s 15.259565204 _6_ AGT  --- 31 ack 40 [0 0 0 0] ------- [6:0 1:0 32 0] [0 0] 0 0
r 15.259565204 _6_ RTR  --- 31 ack 40 [0 0 0 0] ------- [6:0 1:0 32 0] [0 0] 0 0
SFESTs 15.259565204 _6_ 31 [6 -> 1] 1(1) to 3 [6 |3 0 1 ]
s 15.259565204 _6_ RTR  --- 31 ack 84 [0 0 0 0] ------- [6:0 1:0 32 3] [0 0] 0 0
r 15.269643204 _7_ RTR  --- 26 tcp 1060 [13a 7 6 800] ------- [0:0 7:0 30 7] [2 0] 3 0
r 15.269643204 _7_ AGT  --- 26 tcp 1040 [13a 7 6 800] ------- [0:0 7:0 30 7] [2 0] 3 0
s 15.269643204 _7_ AGT  --- 32 ack 40 [0 0 0 0] ------- [7:0 0:0 32 0] [2 0] 0 0
r 15.269643204 _7_ RTR  --- 32 ack 40 [0 0 0 0] ------- [7:0 0:0 32 0] [2 0] 0 0
SFs 15.269643204 _7_ 32 [7 -> 0] 1(0) to 4 
s 15.269643204 _7_ RTR  --- 32 ack 60 [0 0 0 0] ------- [7:0 0:0 32 4] [2 0] 0 0
r 15.271893870 _3_ RTR  --- 31 ack 84 [13a 3 6 800] ------- [6:0 1:0 32 3] [0 0] 1 0
f 15.271893870 _3_ RTR  --- 31 ack 84 [13a 3 6 800] ------- [6:0 1:0 31 0] [0 0] 1 0
r 15.282194537 _1_ RTR  --- 28 tcp 1084 [13a 1 0 800] ------- [3:0 2:0 31 1] [1 0] 2 0
f 15.282194537 _1_ RTR  --- 28 tcp 1084 [13a 1 0 800] ------- [3:0 2:0 30 2] [1 0] 2 0
r 15.292425204 _1_ RTR  --- 29 tcp 1084 [13a 1 0 800] ------- [3:0 2:0 31 1] [2 0] 2 0
f 15.292425204 _1_ RTR  --- 29 tcp 1084 [13a 1 0 800] ------- [3:0 2:0 30 2] [2 0] 2 0
r 15.294995204 _0_ RTR  --- 24 ack 84 [13a 0 1 800] ------- [7:1 0:1 30 0] [0 0] 3 0
r 15.294995204 _0_ AGT  --- 24 ack 40 [13a 0 1 800] ------- [7:1 0:1 30 0] [0 0] 3 0
s 15.294995204 _0_ AGT  --- 33 tcp 1040 [0 0 0 0] ------- [0:1 7:1 32 0] [1 0] 0 0
r 15.294995204 _0_ RTR  --- 33 tcp 1040 [0 0 0 0] ------- [0:1 7:1 32 0] [1 0] 0 0
SFs 15.294995204 _0_ 33 [0 -> 7] 1(0) to 3 
s 15.294995204 _0_ AGT  --- 34 tcp 1040 [0 0 0 0] ------- [0:1 7:1 32 0] [2 0] 0 0
r 15.294995204 _0_ RTR  --- 34 tcp 1040 [0 0 0 0] ------- [0:1 7:1 32 0] [2 0] 0 0
SFs 15.294995204 _0_ 34 [0 -> 7] 1(0) to 3 
s 15.294995204 _0_ RTR  --- 33 tcp 1060 [0 0 0 0] ------- [0:1 7:1 32 3] [1 0] 0 0
s 15.294995204 _0_ RTR  --- 34 tcp 1060 [0 0 0 0] ------- [0:1 7:1 32 3] [2 0] 0 0
r 15.297255480 _0_ RTR  --- 31 ack 84 [13a 0 3 800] ------- [6:0 1:0 31 0] [0 0] 2 0
f 15.297255480 _0_ RTR  --- 31 ack 84 [13a 0 3 800] ------- [6:0 1:0 30 1] [0 0] 2 0
r 15.307233480 _3_ RTR  --- 33 tcp 1060 [13a 3 0 800] ------- [0:1 7:1 32 3] [1 0] 1 0
SFf 15.307233480 _3_ 33 [0 -> 7] 1 to 6
f 15.307233480 _3_ RTR  --- 33 tcp 1060 [13a 3 0 800] ------- [0:1 7:1 31 6] [1 0] 1 0
r 15.317472146 _3_ RTR  --- 34 tcp 1060 [13a 3 0 800] ------- [0:1 7:1 32 3] [2 0] 1 0
SFf 15.317472146 _3_ 34 [0 -> 7] 1 to 6
f 15.317472146 _3_ RTR  --- 34 tcp 1060 [13a 3 0 800] ------- [0:1 7:1 31 6] [2 0] 1 0
r 15.327450146 _6_ RTR  --- 33 tcp 1060 [13a 6 3 800] ------- [0:1 7:1 31 6] [1 0] 2 0
SFf 15.327450146 _6_ 33 [0 -> 7] 1 to 7
f 15.327450146 _6_ RTR  --- 33 tcp 1060 [13a 6 3 800] ------- [0:1 7:1 30 7] [1 0] 2 0
r 15.337508813 _6_ RTR  --- 34 tcp 1060 [13a 6 3 800] ------- [0:1 7:1 31 6] [2 0] 2 0
SFf 15.337508813 _6_ 34 [0 -> 7] 1 to 7
f 15.337508813 _6_ RTR  --- 34 tcp 1060 [13a 6 3 800] ------- [0:1 7:1 30 7] [2 0] 2 0
r 15.339557089 _4_ RTR  --- 32 ack 60 [13a 4 7 800] ------- [7:0 0:0 32 4] [2 0] 1 0
SFf 15.339557089 _4_ 32 [7 -> 0] 1 to 1
f 15.339557089 _4_ RTR  --- 32 ack 60 [13a 4 7 800] ------- [7:0 0:0 31 1] [2 0] 1 0
r 15.349857756 _2_ RTR  --- 28 tcp 1084 [13a 2 1 800] ------- [3:0 2:0 30 2] [1 0] 3 0
r 15.349857756 _2_ AGT  --- 28 tcp 1040 [13a 2 1 800] ------- [3:0 2:0 30 2] [1 0] 3 0
s 15.349857756 _2_ AGT  --- 35 ack 40 [0 0 0 0] ------- [2:0 3:0 32 0] [1 0] 0 0
r 15.349857756 _2_ RTR  --- 35 ack 40 [0 0 0 0] ------- [2:0 3:0 32 0] [1 0] 0 0
SFESTs 15.349857756 _2_ 35 [2 -> 3] 1(1) to 5 [2 |5 4 3 ]
s 15.349857756 _2_ RTR  --- 35 ack 84 [0 0 0 0] ------- [2:0 3:0 32 5] [1 0] 0 0
r 15.352867756 _5_ RTR  --- 35 ack 84 [13a 5 2 800] ------- [2:0 3:0 32 5] [1 0] 1 0
f 15.352867756 _5_ RTR  --- 35 ack 84 [13a 5 2 800] ------- [2:0 3:0 31 4] [1 0] 1 0
r 15.355017756 _4_ RTR  --- 35 ack 84 [13a 4 5 800] ------- [2:0 3:0 31 4] [1 0] 2 0
f 15.355017756 _4_ RTR  --- 35 ack 84 [13a 4 5 800] ------- [2:0 3:0 30 3] [1 0] 2 0
r 15.365718032 _2_ RTR  --- 29 tcp 1084 [13a 2 1 800] ------- [3:0 2:0 30 2] [2 0] 3 0
r 15.365718032 _2_ AGT  --- 29 tcp 1040 [13a 2 1 800] ------- [3:0 2:0 30 2] [2 0] 3 0
s 15.365718032 _2_ AGT  --- 36 ack 40 [0 0 0 0] ------- [2:0 3:0 32 0] [2 0] 0 0
r 15.365718032 _2_ RTR  --- 36 ack 40 [0 0 0 0] ------- [2:0 3:0 32 0] [2 0] 0 0
SFESTs 15.365718032 _2_ 36 [2 -> 3] 1(1) to 5 [2 |5 4 3 ]
s 15.365718032 _2_ RTR  --- 36 ack 84 [0 0 0 0] ------- [2:0 3:0 32 5] [2 0] 0 0
r 15.370173523 _5_ RTR  --- 36 ack 84 [13a 5 2 800] ------- [2:0 3:0 32 5] [2 0] 1 0
f 15.370173523 _5_ RTR  --- 36 ack 84 [13a 5 2 800] ------- [2:0 3:0 31 4] [2 0] 1 0
r 15.372553799 _1_ RTR  --- 30 ack 84 [13a 1 4 800] ------- [7:0 0:0 31 1] [1 0] 2 0
f 15.372553799 _1_ RTR  --- 30 ack 84 [13a 1 4 800] ------- [7:0 0:0 30 0] [1 0] 2 0
r 15.374894075 _1_ RTR  --- 31 ack 84 [13a 1 0 800] ------- [6:0 1:0 30 1] [0 0] 3 0
r 15.374894075 _1_ AGT  --- 31 ack 40 [13a 1 0 800] ------- [6:0 1:0 30 1] [0 0] 3 0
s 15.374894075 _1_ AGT  --- 37 tcp 1040 [0 0 0 0] ------- [1:0 6:0 32 0] [1 0] 0 0
r 15.374894075 _1_ RTR  --- 37 tcp 1040 [0 0 0 0] ------- [1:0 6:0 32 0] [1 0] 0 0
SFESTs 15.374894075 _1_ 37 [1 -> 6] 1(1) to 0 [1 |0 3 6 ]
s 15.374894075 _1_ AGT  --- 38 tcp 1040 [0 0 0 0] ------- [1:0 6:0 32 0] [2 0] 0 0
r 15.374894075 _1_ RTR  --- 38 tcp 1040 [0 0 0 0] ------- [1:0 6:0 32 0] [2 0] 0 0
SFESTs 15.374894075 _1_ 38 [1 -> 6] 1(1) to 0 [1 |0 3 6 ]
s 15.374894075 _1_ RTR  --- 37 tcp 1084 [0 0 0 0] ------- [1:0 6:0 32 0] [1 0] 0 0
s 15.374894075 _1_ RTR  --- 38 tcp 1084 [0 0 0 0] ------- [1:0 6:0 32 0] [2 0] 0 0
r 15.377124075 _0_ RTR  --- 30 ack 84 [13a 0 1 800] ------- [7:0 0:0 30 0] [1 0] 3 0
r 15.377124075 _0_ AGT  --- 30 ack 40 [13a 0 1 800] ------- [7:0 0:0 30 0] [1 0] 3 0
s 15.377124075 _0_ AGT  --- 39 tcp 1040 [0 0 0 0] ------- [0:0 7:0 32 0] [3 0] 0 0
r 15.377124075 _0_ RTR  --- 39 tcp 1040 [0 0 0 0] ------- [0:0 7:0 32 0] [3 0] 0 0
SFs 15.377124075 _0_ 39 [0 -> 7] 1(0) to 3 
s 15.377124075 _0_ AGT  --- 40 tcp 1040 [0 0 0 0] ------- [0:0 7:0 32 0] [4 0] 0 0
r 15.377124075 _0_ RTR  --- 40 tcp 1040 [0 0 0 0] ------- [0:0 7:0 32 0] [4 0] 0 0
SFs 15.377124075 _0_ 40 [0 -> 7] 1(0) to 3 
s 15.377124075 _0_ RTR  --- 39 tcp 1060 [0 0 0 0] ------- [0:0 7:0 32 3] [3 0] 0 0
s 15.377124075 _0_ RTR  --- 40 tcp 1060 [0 0 0 0] ------- [0:0 7:0 32 3] [4 0] 0 0
r 15.387314742 _0_ RTR  --- 37 tcp 1084 [13a 0 1 800] ------- [1:0 6:0 32 0] [1 0] 1 0
f 15.387314742 _0_ RTR  --- 37 tcp 1084 [13a 0 1 800] ------- [1:0 6:0 31 3] [1 0] 1 0
r 15.397312742 _3_ RTR  --- 39 tcp 1060 [13a 3 0 800] ------- [0:0 7:0 32 3] [3 0] 1 0
SFf 15.397312742 _3_ 39 [0 -> 7] 1 to 6
f 15.397312742 _3_ RTR  --- 39 tcp 1060 [13a 3 0 800] ------- [0:0 7:0 31 6] [3 0] 1 0
r 15.407310742 _6_ RTR  --- 39 tcp 1060 [13a 6 3 800] ------- [0:0 7:0 31 6] [3 0] 2 0
SFf 15.407310742 _6_ 39 [0 -> 7] 1 to 7
f 15.407310742 _6_ RTR  --- 39 tcp 1060 [13a 6 3 800] ------- [0:0 7:0 30 7] [3 0] 2 0
r 15.417886232 _0_ RTR  --- 38 tcp 1084 [13a 0 1 800] ------- [1:0 6:0 32 0] [2 0] 1 0
f 15.417886232 _0_ RTR  --- 38 tcp 1084 [13a 0 1 800] ------- [1:0 6:0 31 3] [2 0] 1 0
r 15.428084232 _3_ RTR  --- 40 tcp 1060 [13a 3 0 800] ------- [0:0 7:0 32 3] [4 0] 1 0
SFf 15.428084232 _3_ 40 [0 -> 7] 1 to 6
f 15.428084232 _3_ RTR  --- 40 tcp 1060 [13a 3 0 800] ------- [0:0 7:0 31 6] [4 0] 1 0
r 15.430132508 _1_ RTR  --- 32 ack 60 [13a 1 4 800] ------- [7:0 0:0 31 1] [2 0] 2 0
SFf 15.430132508 _1_ 32 [7 -> 0] 1 to 0
f 15.430132508 _1_ RTR  --- 32 ack 60 [13a 1 4 800] ------- [7:0 0:0 30 0] [2 0] 2 0
r 15.440512785 _3_ RTR  --- 37 tcp 1084 [13a 3 0 800] ------- [1:0 6:0 31 3] [1 0] 2 0
f 15.440512785 _3_ RTR  --- 37 tcp 1084 [13a 3 0 800] ------- [1:0 6:0 30 6] [1 0] 2 0