n -t * -s 0  -x 100 -y 100 -Z 0 -z 30  -v circle -c black
n -t * -s 1  -x 300 -y 100 -Z 0 -z 30  -v circle -c black
n -t * -s 2  -x 500 -y 100 -Z 0 -z 30  -v circle -c black
n -t * -s 3  -x 100 -y 300 -Z 0 -z 30  -v circle -c black
n -t * -s 4  -x 300 -y 300 -Z 0 -z 30  -v circle -c black
n -t * -s 5  -x 500 -y 300 -Z 0 -z 30  -v circle -c black
n -t * -s 6  -x 100 -y 500 -Z 0 -z 30  -v circle -c black
n -t * -s 7  -x 300 -y 500 -Z 0 -z 30  -v circle -c black
n -t * -s 8  -x 500 -y 500 -Z 0 -z 30  -v circle -c black
V -t * -v 1.0a5 -a 0
W -t * -x 500 -y 500
A -t * -n 1 -p 0 -o 0xffffffff -c 31 -a 1
A -t * -h 1 -m 2147483647 -s 0
+ -t 15.000000000 -s 0 -d -1 -p tcp -e 40 -c 2 -a 0 -i 0 -k AGT 
- -t 15.000000000 -s 0 -d -1 -p tcp -e 40 -c 2 -a 0 -i 0 -k AGT
h -t 15.000000000 -s 0 -d -1 -p tcp -e 40 -c 2 -a 0 -i 0 -k AGT
+ -t 15.000000000 -s 1 -d -1 -p tcp -e 40 -c 2 -a 0 -i 2 -k AGT 
- -t 15.000000000 -s 1 -d -1 -p tcp -e 40 -c 2 -a 0 -i 2 -k AGT
h -t 15.000000000 -s 1 -d -1 -p tcp -e 40 -c 2 -a 0 -i 2 -k AGT
+ -t 15.000000000 -s 0 -d -1 -p tcp -e 40 -c 2 -a 0 -i 4 -k AGT 
- -t 15.000000000 -s 0 -d -1 -p tcp -e 40 -c 2 -a 0 -i 4 -k AGT
h -t 15.000000000 -s 0 -d -1 -p tcp -e 40 -c 2 -a 0 -i 4 -k AGT
+ -t 15.000000000 -s 3 -d -1 -p tcp -e 40 -c 2 -a 0 -i 6 -k AGT 
- -t 15.000000000 -s 3 -d -1 -p tcp -e 40 -c 2 -a 0 -i 6 -k AGT
h -t 15.000000000 -s 3 -d -1 -p tcp -e 40 -c 2 -a 0 -i 6 -k AGT
+ -t 15.004020724 -s 0 -d -1 -p DSR -e 32 -c 2 -a 0 -i 1 -k RTR 
- -t 15.004020724 -s 0 -d -1 -p DSR -e 32 -c 2 -a 0 -i 1 -k RTR
h -t 15.004020724 -s 0 -d -1 -p DSR -e 32 -c 2 -a 0 -i 1 -k RTR
+ -t 15.004664693 -s 3 -d -1 -p DSR -e 32 -c 2 -a 0 -i 7 -k RTR 
- -t 15.004664693 -s 3 -d -1 -p DSR -e 32 -c 2 -a 0 -i 7 -k RTR
h -t 15.004664693 -s 3 -d -1 -p DSR -e 32 -c 2 -a 0 -i 7 -k RTR
+ -t 15.009605526 -s 1 -d -1 -p DSR -e 32 -c 2 -a 0 -i 3 -k RTR 
- -t 15.009605526 -s 1 -d -1 -p DSR -e 32 -c 2 -a 0 -i 3 -k RTR
h -t 15.009605526 -s 1 -d -1 -p DSR -e 32 -c 2 -a 0 -i 3 -k RTR
+ -t 15.050921248 -s 0 -d -1 -p DSR -e 32 -c 2 -a 0 -i 9 -k RTR 
- -t 15.050921248 -s 0 -d -1 -p DSR -e 32 -c 2 -a 0 -i 9 -k RTR
h -t 15.050921248 -s 0 -d -1 -p DSR -e 32 -c 2 -a 0 -i 9 -k RTR
+ -t 15.053333623 -s 1 -d -1 -p DSR -e 48 -c 2 -a 0 -i 9 -k RTR 
- -t 15.053333623 -s 1 -d -1 -p DSR -e 48 -c 2 -a 0 -i 9 -k RTR
h -t 15.053333623 -s 1 -d -1 -p DSR -e 48 -c 2 -a 0 -i 9 -k RTR
+ -t 15.054841351 -s 2 -d -1 -p DSR -e 68 -c 2 -a 0 -i 9 -k RTR 
- -t 15.054841351 -s 2 -d -1 -p DSR -e 68 -c 2 -a 0 -i 9 -k RTR
h -t 15.054841351 -s 2 -d -1 -p DSR -e 68 -c 2 -a 0 -i 9 -k RTR
+ -t 15.060125340 -s 3 -d -1 -p DSR -e 48 -c 2 -a 0 -i 9 -k RTR 
- -t 15.060125340 -s 3 -d -1 -p DSR -e 48 -c 2 -a 0 -i 9 -k RTR
h -t 15.060125340 -s 3 -d -1 -p DSR -e 48 -c 2 -a 0 -i 9 -k RTR
+ -t 15.060905115 -s 3 -d -1 -p DSR -e 32 -c 2 -a 0 -i 11 -k RTR 
- -t 15.060905115 -s 3 -d -1 -p DSR -e 32 -c 2 -a 0 -i 11 -k RTR
h -t 15.060905115 -s 3 -d -1 -p DSR -e 32 -c 2 -a 0 -i 11 -k RTR
+ -t 15.061832484 -s 4 -d -1 -p DSR -e 68 -c 2 -a 0 -i 9 -k RTR 
- -t 15.061832484 -s 4 -d -1 -p DSR -e 68 -c 2 -a 0 -i 9 -k RTR
h -t 15.061832484 -s 4 -d -1 -p DSR -e 68 -c 2 -a 0 -i 9 -k RTR
+ -t 15.061858250 -s 5 -d -1 -p DSR -e 92 -c 2 -a 0 -i 9 -k RTR 
- -t 15.061858250 -s 5 -d -1 -p DSR -e 92 -c 2 -a 0 -i 9 -k RTR
h -t 15.061858250 -s 5 -d -1 -p DSR -e 92 -c 2 -a 0 -i 9 -k RTR
+ -t 15.064499690 -s 6 -d -1 -p DSR -e 68 -c 2 -a 0 -i 9 -k RTR 
- -t 15.064499690 -s 6 -d -1 -p DSR -e 68 -c 2 -a 0 -i 9 -k RTR
h -t 15.064499690 -s 6 -d -1 -p DSR -e 68 -c 2 -a 0 -i 9 -k RTR
+ -t 15.068083898 -s 8 -d -1 -p DSR -e 120 -c 2 -a 0 -i 9 -k RTR 
- -t 15.068083898 -s 8 -d -1 -p DSR -e 120 -c 2 -a 0 -i 9 -k RTR
h -t 15.068083898 -s 8 -d -1 -p DSR -e 120 -c 2 -a 0 -i 9 -k RTR
+ -t 15.068148473 -s 4 -d -1 -p DSR -e 48 -c 2 -a 0 -i 11 -k RTR 
- -t 15.068148473 -s 4 -d -1 -p DSR -e 48 -c 2 -a 0 -i 11 -k RTR
h -t 15.068148473 -s 4 -d -1 -p DSR -e 48 -c 2 -a 0 -i 11 -k RTR
+ -t 15.069630274 -s 0 -d -1 -p DSR -e 48 -c 2 -a 0 -i 11 -k RTR 
- -t 15.069630274 -s 0 -d -1 -p DSR -e 48 -c 2 -a 0 -i 11 -k RTR
h -t 15.069630274 -s 0 -d -1 -p DSR -e 48 -c 2 -a 0 -i 11 -k RTR
+ -t 15.070993339 -s 6 -d -1 -p DSR -e 48 -c 2 -a 0 -i 11 -k RTR 
- -t 15.070993339 -s 6 -d -1 -p DSR -e 48 -c 2 -a 0 -i 11 -k RTR
h -t 15.070993339 -s 6 -d -1 -p DSR -e 48 -c 2 -a 0 -i 11 -k RTR
+ -t 15.071293151 -s 7 -d 6 -p DSR -e 60 -c 2 -a 0 -i 13 -k RTR 
- -t 15.071293151 -s 7 -d 6 -p DSR -e 60 -c 2 -a 0 -i 13 -k RTR
h -t 15.071293151 -s 7 -d 6 -p DSR -e 60 -c 2 -a 0 -i 13 -k RTR
+ -t 15.071967955 -s 7 -d 4 -p DSR -e 60 -c 2 -a 0 -i 12 -k RTR 
- -t 15.071967955 -s 7 -d 4 -p DSR -e 60 -c 2 -a 0 -i 12 -k RTR
h -t 15.071967955 -s 7 -d 4 -p DSR -e 60 -c 2 -a 0 -i 12 -k RTR
+ -t 15.072266274 -s 7 -d 6 -p DSR -e 64 -c 2 -a 0 -i 16 -k RTR 
- -t 15.072266274 -s 7 -d 6 -p DSR -e 64 -c 2 -a 0 -i 16 -k RTR
h -t 15.072266274 -s 7 -d 6 -p DSR -e 64 -c 2 -a 0 -i 16 -k RTR
+ -t 15.073905588 -s 1 -d -1 -p DSR -e 68 -c 2 -a 0 -i 11 -k RTR 
- -t 15.073905588 -s 1 -d -1 -p DSR -e 68 -c 2 -a 0 -i 11 -k RTR
h -t 15.073905588 -s 1 -d -1 -p DSR -e 68 -c 2 -a 0 -i 11 -k RTR
+ -t 15.074010274 -s 6 -d 3 -p DSR -e 60 -c 2 -a 0 -i 13 -k RTR 
- -t 15.074010274 -s 6 -d 3 -p DSR -e 60 -c 2 -a 0 -i 13 -k RTR
h -t 15.074010274 -s 6 -d 3 -p DSR -e 60 -c 2 -a 0 -i 13 -k RTR
+ -t 15.075980941 -s 6 -d 3 -p DSR -e 64 -c 2 -a 0 -i 16 -k RTR 
- -t 15.075980941 -s 6 -d 3 -p DSR -e 64 -c 2 -a 0 -i 16 -k RTR
h -t 15.075980941 -s 6 -d 3 -p DSR -e 64 -c 2 -a 0 -i 16 -k RTR
+ -t 15.077835975 -s 1 -d -1 -p DSR -e 32 -c 2 -a 0 -i 15 -k RTR 
- -t 15.077835975 -s 1 -d -1 -p DSR -e 32 -c 2 -a 0 -i 15 -k RTR
h -t 15.077835975 -s 1 -d -1 -p DSR -e 32 -c 2 -a 0 -i 15 -k RTR
+ -t 15.078178941 -s 3 -d 0 -p DSR -e 60 -c 2 -a 0 -i 13 -k RTR 
- -t 15.078178941 -s 3 -d 0 -p DSR -e 60 -c 2 -a 0 -i 13 -k RTR
h -t 15.078178941 -s 3 -d 0 -p DSR -e 60 -c 2 -a 0 -i 13 -k RTR
+ -t 15.079284951 -s 7 -d 8 -p DSR -e 76 -c 2 -a 0 -i 14 -k RTR 
- -t 15.079284951 -s 7 -d 8 -p DSR -e 76 -c 2 -a 0 -i 14 -k RTR
h -t 15.079284951 -s 7 -d 8 -p DSR -e 76 -c 2 -a 0 -i 14 -k RTR
+ -t 15.080136941 -s 0 -d 3 -p tcp -e 84 -c 2 -a 0 -i 0 -k RTR 
- -t 15.080136941 -s 0 -d 3 -p tcp -e 84 -c 2 -a 0 -i 0 -k RTR
h -t 15.080136941 -s 0 -d 3 -p tcp -e 84 -c 2 -a 0 -i 0 -k RTR
+ -t 15.082386941 -s 3 -d 6 -p tcp -e 84 -c 2 -a 0 -i 0 -k RTR 
- -t 15.082386941 -s 3 -d 6 -p tcp -e 84 -c 2 -a 0 -i 0 -k RTR
h -t 15.082386941 -s 3 -d 6 -p tcp -e 84 -c 2 -a 0 -i 0 -k RTR
+ -t 15.084576941 -s 6 -d 7 -p tcp -e 84 -c 2 -a 0 -i 0 -k RTR 
- -t 15.084576941 -s 6 -d 7 -p tcp -e 84 -c 2 -a 0 -i 0 -k RTR
h -t 15.084576941 -s 6 -d 7 -p tcp -e 84 -c 2 -a 0 -i 0 -k RTR
+ -t 15.086586941 -s 3 -d 6 -p tcp -e 92 -c 2 -a 0 -i 6 -k RTR 
- -t 15.086586941 -s 3 -d 6 -p tcp -e 92 -c 2 -a 0 -i 6 -k RTR
h -t 15.086586941 -s 3 -d 6 -p tcp -e 92 -c 2 -a 0 -i 6 -k RTR
+ -t 15.089754054 -s 5 -d -1 -p DSR -e 68 -c 2 -a 0 -i 11 -k RTR 
- -t 15.089754054 -s 5 -d -1 -p DSR -e 68 -c 2 -a 0 -i 11 -k RTR
h -t 15.089754054 -s 5 -d -1 -p DSR -e 68 -c 2 -a 0 -i 11 -k RTR
+ -t 15.090772827 -s 4 -d 1 -p DSR -e 60 -c 2 -a 0 -i 12 -k RTR 
- -t 15.090772827 -s 4 -d 1 -p DSR -e 60 -c 2 -a 0 -i 12 -k RTR
h -t 15.090772827 -s 4 -d 1 -p DSR -e 60 -c 2 -a 0 -i 12 -k RTR
+ -t 15.093057103 -s 6 -d 7 -p tcp -e 92 -c 2 -a 0 -i 6 -k RTR 
- -t 15.093057103 -s 6 -d 7 -p tcp -e 92 -c 2 -a 0 -i 6 -k RTR
h -t 15.093057103 -s 6 -d 7 -p tcp -e 92 -c 2 -a 0 -i 6 -k RTR
r -t 15.095227103 -s 7 -d 7 -p tcp -e 40 -c 2 -a 0 -i 0 -k AGT
+ -t 15.095227103 -s 7 -d -1 -p ack -e 40 -c 2 -a 0 -i 19 -k AGT 
- -t 15.095227103 -s 7 -d -1 -p ack -e 40 -c 2 -a 0 -i 19 -k AGT
h -t 15.095227103 -s 7 -d -1 -p ack -e 40 -c 2 -a 0 -i 19 -k AGT
+ -t 15.095227103 -s 7 -d 4 -p ack -e 84 -c 2 -a 0 -i 19 -k RTR 
- -t 15.095227103 -s 7 -d 4 -p ack -e 84 -c 2 -a 0 -i 19 -k RTR
h -t 15.095227103 -s 7 -d 4 -p ack -e 84 -c 2 -a 0 -i 19 -k RTR
+ -t 15.097313103 -s 8 -d 5 -p DSR -e 76 -c 2 -a 0 -i 14 -k RTR 
- -t 15.097313103 -s 8 -d 5 -p DSR -e 76 -c 2 -a 0 -i 14 -k RTR
h -t 15.097313103 -s 8 -d 5 -p DSR -e 76 -c 2 -a 0 -i 14 -k RTR
+ -t 15.099164101 -s 8 -d -1 -p DSR -e 92 -c 2 -a 0 -i 11 -k RTR 
- -t 15.099164101 -s 8 -d -1 -p DSR -e 92 -c 2 -a 0 -i 11 -k RTR
h -t 15.099164101 -s 8 -d -1 -p DSR -e 92 -c 2 -a 0 -i 11 -k RTR
+ -t 15.100940046 -s 5 -d 2 -p DSR -e 76 -c 2 -a 0 -i 14 -k RTR 
- -t 15.100940046 -s 5 -d 2 -p DSR -e 76 -c 2 -a 0 -i 14 -k RTR
h -t 15.100940046 -s 5 -d 2 -p DSR -e 76 -c 2 -a 0 -i 14 -k RTR
+ -t 15.104393379 -s 4 -d 1 -p ack -e 84 -c 2 -a 0 -i 19 -k RTR 
- -t 15.104393379 -s 4 -d 1 -p ack -e 84 -c 2 -a 0 -i 19 -k RTR
h -t 15.104393379 -s 4 -d 1 -p ack -e 84 -c 2 -a 0 -i 19 -k RTR
+ -t 15.104442744 -s 2 -d 5 -p DSR -e 60 -c 2 -a 0 -i 20 -k RTR 
- -t 15.104442744 -s 2 -d 5 -p DSR -e 60 -c 2 -a 0 -i 20 -k RTR
h -t 15.104442744 -s 2 -d 5 -p DSR -e 60 -c 2 -a 0 -i 20 -k RTR
+ -t 15.107472712 -s 1 -d 0 -p DSR -e 60 -c 2 -a 0 -i 12 -k RTR 
- -t 15.107472712 -s 1 -d 0 -p DSR -e 60 -c 2 -a 0 -i 12 -k RTR
h -t 15.107472712 -s 1 -d 0 -p DSR -e 60 -c 2 -a 0 -i 12 -k RTR
+ -t 15.109500989 -s 5 -d 4 -p DSR -e 60 -c 2 -a 0 -i 20 -k RTR 
- -t 15.109500989 -s 5 -d 4 -p DSR -e 60 -c 2 -a 0 -i 20 -k RTR
h -t 15.109500989 -s 5 -d 4 -p DSR -e 60 -c 2 -a 0 -i 20 -k RTR
+ -t 15.110136941 -s 0 -d 3 -p tcp -e 84 -c 2 -a 0 -i 4 -k RTR 
- -t 15.110136941 -s 0 -d 3 -p tcp -e 84 -c 2 -a 0 -i 4 -k RTR
h -t 15.110136941 -s 0 -d 3 -p tcp -e 84 -c 2 -a 0 -i 4 -k RTR
+ -t 15.110807978 -s 2 -d 1 -p DSR -e 60 -c 2 -a 0 -i 21 -k RTR 
- -t 15.110807978 -s 2 -d 1 -p DSR -e 60 -c 2 -a 0 -i 21 -k RTR
h -t 15.110807978 -s 2 -d 1 -p DSR -e 60 -c 2 -a 0 -i 21 -k RTR
+ -t 15.111998637 -s 2 -d 1 -p DSR -e 76 -c 2 -a 0 -i 14 -k RTR 
- -t 15.111998637 -s 2 -d 1 -p DSR -e 76 -c 2 -a 0 -i 14 -k RTR
h -t 15.111998637 -s 2 -d 1 -p DSR -e 76 -c 2 -a 0 -i 14 -k RTR
+ -t 15.114056637 -s 1 -d 0 -p DSR -e 60 -c 2 -a 0 -i 21 -k RTR 
- -t 15.114056637 -s 1 -d 0 -p DSR -e 60 -c 2 -a 0 -i 21 -k RTR
h -t 15.114056637 -s 1 -d 0 -p DSR -e 60 -c 2 -a 0 -i 21 -k RTR
+ -t 15.116463303 -s 1 -d 0 -p DSR -e 76 -c 2 -a 0 -i 14 -k RTR 
- -t 15.116463303 -s 1 -d 0 -p DSR -e 76 -c 2 -a 0 -i 14 -k RTR
h -t 15.116463303 -s 1 -d 0 -p DSR -e 76 -c 2 -a 0 -i 14 -k RTR
+ -t 15.117579970 -s 0 -d 1 -p DSR -e 52 -c 2 -a 0 -i 22 -k RTR 
- -t 15.117579970 -s 0 -d 1 -p DSR -e 52 -c 2 -a 0 -i 22 -k RTR
h -t 15.117579970 -s 0 -d 1 -p DSR -e 52 -c 2 -a 0 -i 22 -k RTR
+ -t 15.117579970 -s 4 -d 1 -p DSR -e 52 -c 2 -a 0 -i 23 -k RTR 
- -t 15.117579970 -s 4 -d 1 -p DSR -e 52 -c 2 -a 0 -i 23 -k RTR
h -t 15.117579970 -s 4 -d 1 -p DSR -e 52 -c 2 -a 0 -i 23 -k RTR
+ -t 15.121861303 -s 3 -d 6 -p tcp -e 84 -c 2 -a 0 -i 4 -k RTR 
- -t 15.121861303 -s 3 -d 6 -p tcp -e 84 -c 2 -a 0 -i 4 -k RTR
h -t 15.121861303 -s 3 -d 6 -p tcp -e 84 -c 2 -a 0 -i 4 -k RTR
+ -t 15.124231303 -s 6 -d 7 -p tcp -e 84 -c 2 -a 0 -i 4 -k RTR 
- -t 15.124231303 -s 6 -d 7 -p tcp -e 84 -c 2 -a 0 -i 4 -k RTR
h -t 15.124231303 -s 6 -d 7 -p tcp -e 84 -c 2 -a 0 -i 4 -k RTR
+ -t 15.125073555 -s 2 -d -1 -p DSR -e 48 -c 2 -a 0 -i 15 -k RTR 
- -t 15.125073555 -s 2 -d -1 -p DSR -e 48 -c 2 -a 0 -i 15 -k RTR
h -t 15.125073555 -s 2 -d -1 -p DSR -e 48 -c 2 -a 0 -i 15 -k RTR
+ -t 15.126826246 -s 1 -d 0 -p ack -e 84 -c 2 -a 0 -i 19 -k RTR 
- -t 15.126826246 -s 1 -d 0 -p ack -e 84 -c 2 -a 0 -i 19 -k RTR
h -t 15.126826246 -s 1 -d 0 -p ack -e 84 -c 2 -a 0 -i 19 -k RTR
+ -t 15.128375940 -s 1 -d 0 -p tcp -e 84 -c 2 -a 0 -i 2 -k RTR 
- -t 15.128375940 -s 1 -d 0 -p tcp -e 84 -c 2 -a 0 -i 2 -k RTR
h -t 15.128375940 -s 1 -d 0 -p tcp -e 84 -c 2 -a 0 -i 2 -k RTR
+ -t 15.128864246 -s 0 -d 3 -p DSR -e 60 -c 2 -a 0 -i 21 -k RTR 
- -t 15.128864246 -s 0 -d 3 -p DSR -e 60 -c 2 -a 0 -i 21 -k RTR
h -t 15.128864246 -s 0 -d 3 -p DSR -e 60 -c 2 -a 0 -i 21 -k RTR
+ -t 15.137178913 -s 7 -d 8 -p tcp -e 92 -c 2 -a 0 -i 6 -k RTR 
- -t 15.137178913 -s 7 -d 8 -p tcp -e 92 -c 2 -a 0 -i 6 -k RTR
h -t 15.137178913 -s 7 -d 8 -p tcp -e 92 -c 2 -a 0 -i 6 -k RTR
r -t 15.139729579 -s 7 -d 7 -p tcp -e 40 -c 2 -a 0 -i 4 -k AGT
+ -t 15.139729579 -s 7 -d -1 -p ack -e 40 -c 2 -a 0 -i 24 -k AGT 
- -t 15.139729579 -s 7 -d -1 -p ack -e 40 -c 2 -a 0 -i 24 -k AGT
h -t 15.139729579 -s 7 -d -1 -p ack -e 40 -c 2 -a 0 -i 24 -k AGT
+ -t 15.139729579 -s 7 -d 4 -p ack -e 84 -c 2 -a 0 -i 24 -k RTR 
- -t 15.139729579 -s 7 -d 4 -p ack -e 84 -c 2 -a 0 -i 24 -k RTR
h -t 15.139729579 -s 7 -d 4 -p ack -e 84 -c 2 -a 0 -i 24 -k RTR
+ -t 15.142143579 -s 8 -d 5 -p tcp -e 92 -c 2 -a 0 -i 6 -k RTR 
- -t 15.142143579 -s 8 -d 5 -p tcp -e 92 -c 2 -a 0 -i 6 -k RTR
h -t 15.142143579 -s 8 -d 5 -p tcp -e 92 -c 2 -a 0 -i 6 -k RTR
+ -t 15.144251856 -s 4 -d 3 -p DSR -e 60 -c 2 -a 0 -i 20 -k RTR 
- -t 15.144251856 -s 4 -d 3 -p DSR -e 60 -c 2 -a 0 -i 20 -k RTR
h -t 15.144251856 -s 4 -d 3 -p DSR -e 60 -c 2 -a 0 -i 20 -k RTR
r -t 15.146532132 -s 0 -d 0 -p ack -e 40 -c 2 -a 0 -i 19 -k AGT
+ -t 15.146532132 -s 0 -d -1 -p tcp -e 1040 -c 2 -a 0 -i 25 -k AGT 
- -t 15.146532132 -s 0 -d -1 -p tcp -e 1040 -c 2 -a 0 -i 25 -k AGT
h -t 15.146532132 -s 0 -d -1 -p tcp -e 1040 -c 2 -a 0 -i 25 -k AGT
+ -t 15.146532132 -s 0 -d -1 -p tcp -e 1040 -c 2 -a 0 -i 26 -k AGT 
- -t 15.146532132 -s 0 -d -1 -p tcp -e 1040 -c 2 -a 0 -i 26 -k AGT
h -t 15.146532132 -s 0 -d -1 -p tcp -e 1040 -c 2 -a 0 -i 26 -k AGT
+ -t 15.146532132 -s 0 -d 3 -p tcp -e 1084 -c 2 -a 0 -i 25 -k RTR 
- -t 15.146532132 -s 0 -d 3 -p tcp -e 1084 -c 2 -a 0 -i 25 -k RTR
h -t 15.146532132 -s 0 -d 3 -p tcp -e 1084 -c 2 -a 0 -i 25 -k RTR
+ -t 15.146532132 -s 0 -d 3 -p tcp -e 1060 -c 2 -a 0 -i 26 -k RTR 
- -t 15.146532132 -s 0 -d 3 -p tcp -e 1060 -c 2 -a 0 -i 26 -k RTR
h -t 15.146532132 -s 0 -d 3 -p tcp -e 1060 -c 2 -a 0 -i 26 -k RTR
+ -t 15.148742798 -s 0 -d 3 -p tcp -e 84 -c 2 -a 0 -i 2 -k RTR 
- -t 15.148742798 -s 0 -d 3 -p tcp -e 84 -c 2 -a 0 -i 2 -k RTR
h -t 15.148742798 -s 0 -d 3 -p tcp -e 84 -c 2 -a 0 -i 2 -k RTR
+ -t 15.152147622 -s 5 -d 2 -p tcp -e 92 -c 2 -a 0 -i 6 -k RTR 
- -t 15.152147622 -s 5 -d 2 -p tcp -e 92 -c 2 -a 0 -i 6 -k RTR
h -t 15.152147622 -s 5 -d 2 -p tcp -e 92 -c 2 -a 0 -i 6 -k RTR
r -t 15.156985232 -s 2 -d 2 -p tcp -e 40 -c 2 -a 0 -i 6 -k AGT
+ -t 15.156985232 -s 2 -d -1 -p ack -e 40 -c 2 -a 0 -i 27 -k AGT 
- -t 15.156985232 -s 2 -d -1 -p ack -e 40 -c 2 -a 0 -i 27 -k AGT
h -t 15.156985232 -s 2 -d -1 -p ack -e 40 -c 2 -a 0 -i 27 -k AGT
+ -t 15.156985232 -s 2 -d 5 -p ack -e 84 -c 2 -a 0 -i 27 -k RTR 
- -t 15.156985232 -s 2 -d 5 -p ack -e 84 -c 2 -a 0 -i 27 -k RTR
h -t 15.156985232 -s 2 -d 5 -p ack -e 84 -c 2 -a 0 -i 27 -k RTR
+ -t 15.159355232 -s 5 -d 4 -p ack -e 84 -c 2 -a 0 -i 27 -k RTR 
- -t 15.159355232 -s 5 -d 4 -p ack -e 84 -c 2 -a 0 -i 27 -k RTR
h -t 15.159355232 -s 5 -d 4 -p ack -e 84 -c 2 -a 0 -i 27 -k RTR
+ -t 15.161525232 -s 4 -d 3 -p ack -e 84 -c 2 -a 0 -i 27 -k RTR 
- -t 15.161525232 -s 4 -d 3 -p ack -e 84 -c 2 -a 0 -i 27 -k RTR
h -t 15.161525232 -s 4 -d 3 -p ack -e 84 -c 2 -a 0 -i 27 -k RTR
+ -t 15.166318175 -s 4 -d 1 -p ack -e 84 -c 2 -a 0 -i 24 -k RTR 
- -t 15.166318175 -s 4 -d 1 -p ack -e 84 -c 2 -a 0 -i 24 -k RTR
h -t 15.166318175 -s 4 -d 1 -p ack -e 84 -c 2 -a 0 -i 24 -k RTR
r -t 15.168488175 -s 3 -d 3 -p ack -e 40 -c 2 -a 0 -i 27 -k AGT
+ -t 15.168488175 -s 3 -d -1 -p tcp -e 1040 -c 2 -a 0 -i 28 -k AGT 
- -t 15.168488175 -s 3 -d -1 -p tcp -e 1040 -c 2 -a 0 -i 28 -k AGT
h -t 15.168488175 -s 3 -d -1 -p tcp -e 1040 -c 2 -a 0 -i 28 -k AGT
+ -t 15.168488175 -s 3 -d -1 -p tcp -e 1040 -c 2 -a 0 -i 29 -k AGT 
- -t 15.168488175 -s 3 -d -1 -p tcp -e 1040 -c 2 -a 0 -i 29 -k AGT
h -t 15.168488175 -s 3 -d -1 -p tcp -e 1040 -c 2 -a 0 -i 29 -k AGT
+ -t 15.168488175 -s 3 -d 0 -p tcp -e 1084 -c 2 -a 0 -i 28 -k RTR 
- -t 15.168488175 -s 3 -d 0 -p tcp -e 1084 -c 2 -a 0 -i 28 -k RTR
h -t 15.168488175 -s 3 -d 0 -p tcp -e 1084 -c 2 -a 0 -i 28 -k RTR
+ -t 15.168488175 -s 3 -d 0 -p tcp -e 1084 -c 2 -a 0 -i 29 -k RTR 
- -t 15.168488175 -s 3 -d 0 -p tcp -e 1084 -c 2 -a 0 -i 29 -k RTR
h -t 15.168488175 -s 3 -d 0 -p tcp -e 1084 -c 2 -a 0 -i 29 -k RTR
+ -t 15.178958175 -s 0 -d 1 -p tcp -e 1084 -c 2 -a 0 -i 28 -k RTR 
- -t 15.178958175 -s 0 -d 1 -p tcp -e 1084 -c 2 -a 0 -i 28 -k RTR
h -t 15.178958175 -s 0 -d 1 -p tcp -e 1084 -c 2 -a 0 -i 28 -k RTR
+ -t 15.189568841 -s 0 -d 1 -p tcp -e 1084 -c 2 -a 0 -i 29 -k RTR 
- -t 15.189568841 -s 0 -d 1 -p tcp -e 1084 -c 2 -a 0 -i 29 -k RTR
h -t 15.189568841 -s 0 -d 1 -p tcp -e 1084 -c 2 -a 0 -i 29 -k RTR
+ -t 15.192203784 -s 1 -d 0 -p ack -e 84 -c 2 -a 0 -i 24 -k RTR 
- -t 15.192203784 -s 1 -d 0 -p ack -e 84 -c 2 -a 0 -i 24 -k RTR
h -t 15.192203784 -s 1 -d 0 -p ack -e 84 -c 2 -a 0 -i 24 -k RTR
+ -t 15.202464060 -s 3 -d 6 -p tcp -e 1084 -c 2 -a 0 -i 25 -k RTR 
- -t 15.202464060 -s 3 -d 6 -p tcp -e 1084 -c 2 -a 0 -i 25 -k RTR
h -t 15.202464060 -s 3 -d 6 -p tcp -e 1084 -c 2 -a 0 -i 25 -k RTR
+ -t 15.213054060 -s 6 -d 7 -p tcp -e 1084 -c 2 -a 0 -i 25 -k RTR 
- -t 15.213054060 -s 6 -d 7 -p tcp -e 1084 -c 2 -a 0 -i 25 -k RTR
h -t 15.213054060 -s 6 -d 7 -p tcp -e 1084 -c 2 -a 0 -i 25 -k RTR
r -t 15.223504060 -s 7 -d 7 -p tcp -e 1040 -c 2 -a 0 -i 25 -k AGT
+ -t 15.223504060 -s 7 -d -1 -p ack -e 40 -c 2 -a 0 -i 30 -k AGT 
- -t 15.223504060 -s 7 -d -1 -p ack -e 40 -c 2 -a 0 -i 30 -k AGT
h -t 15.223504060 -s 7 -d -1 -p ack -e 40 -c 2 -a 0 -i 30 -k AGT
+ -t 15.223504060 -s 7 -d 4 -p ack -e 84 -c 2 -a 0 -i 30 -k RTR 
- -t 15.223504060 -s 7 -d 4 -p ack -e 84 -c 2 -a 0 -i 30 -k RTR
h -t 15.223504060 -s 7 -d 4 -p ack -e 84 -c 2 -a 0 -i 30 -k RTR
+ -t 15.226927042 -s 4 -d 1 -p ack -e 84 -c 2 -a 0 -i 30 -k RTR 
- -t 15.226927042 -s 4 -d 1 -p ack -e 84 -c 2 -a 0 -i 30 -k RTR
h -t 15.226927042 -s 4 -d 1 -p ack -e 84 -c 2 -a 0 -i 30 -k RTR
+ -t 15.244765870 -s 3 -d 6 -p tcp -e 1060 -c 2 -a 0 -i 26 -k RTR 
- -t 15.244765870 -s 3 -d 6 -p tcp -e 1060 -c 2 -a 0 -i 26 -k RTR
h -t 15.244765870 -s 3 -d 6 -p tcp -e 1060 -c 2 -a 0 -i 26 -k RTR
+ -t 15.247096537 -s 3 -d 6 -p tcp -e 84 -c 2 -a 0 -i 2 -k RTR 
- -t 15.247096537 -s 3 -d 6 -p tcp -e 84 -c 2 -a 0 -i 2 -k RTR
h -t 15.247096537 -s 3 -d 6 -p tcp -e 84 -c 2 -a 0 -i 2 -k RTR
+ -t 15.257334537 -s 6 -d 7 -p tcp -e 1060 -c 2 -a 0 -i 26 -k RTR 
- -t 15.257334537 -s 6 -d 7 -p tcp -e 1060 -c 2 -a 0 -i 26 -k RTR
h -t 15.257334537 -s 6 -d 7 -p tcp -e 1060 -c 2 -a 0 -i 26 -k RTR
r -t 15.259565204 -s 6 -d 6 -p tcp -e 40 -c 2 -a 0 -i 2 -k AGT
+ -t 15.259565204 -s 6 -d -1 -p ack -e 40 -c 2 -a 0 -i 31 -k AGT 
- -t 15.259565204 -s 6 -d -1 -p ack -e 40 -c 2 -a 0 -i 31 -k AGT
h -t 15.259565204 -s 6 -d -1 -p ack -e 40 -c 2 -a 0 -i 31 -k AGT
+ -t 15.259565204 -s 6 -d 3 -p ack -e 84 -c 2 -a 0 -i 31 -k RTR 
- -t 15.259565204 -s 6 -d 3 -p ack -e 84 -c 2 -a 0 -i 31 -k RTR
h -t 15.259565204 -s 6 -d 3 -p ack -e 84 -c 2 -a 0 -i 31 -k RTR
r -t 15.269643204 -s 7 -d 7 -p tcp -e 1040 -c 2 -a 0 -i 26 -k AGT
+ -t 15.269643204 -s 7 -d -1 -p ack -e 40 -c 2 -a 0 -i 32 -k AGT 
- -t 15.269643204 -s 7 -d -1 -p ack -e 40 -c 2 -a 0 -i 32 -k AGT
h -t 15.269643204 -s 7 -d -1 -p ack -e 40 -c 2 -a 0 -i 32 -k AGT
+ -t 15.269643204 -s 7 -d 4 -p ack -e 60 -c 2 -a 0 -i 32 -k RTR 
- -t 15.269643204 -s 7 -d 4 -p ack -e 60 -c 2 -a 0 -i 32 -k RTR
h -t 15.269643204 -s 7 -d 4 -p ack -e 60 -c 2 -a 0 -i 32 -k RTR
+ -t 15.271893870 -s 3 -d 0 -p ack -e 84 -c 2 -a 0 -i 31 -k RTR 
- -t 15.271893870 -s 3 -d 0 -p ack -e 84 -c 2 -a 0 -i 31 -k RTR
h -t 15.271893870 -s 3 -d 0 -p ack -e 84 -c 2 -a 0 -i 31 -k RTR
+ -t 15.282194537 -s 1 -d 2 -p tcp -e 1084 -c 2 -a 0 -i 28 -k RTR 
- -t 15.282194537 -s 1 -d 2 -p tcp -e 1084 -c 2 -a 0 -i 28 -k RTR
h -t 15.282194537 -s 1 -d 2 -p tcp -e 1084 -c 2 -a 0 -i 28 -k RTR
+ -t 15.292425204 -s 1 -d 2 -p tcp -e 1084 -c 2 -a 0 -i 29 -k RTR 
- -t 15.292425204 -s 1 -d 2 -p tcp -e 1084 -c 2 -a 0 -i 29 -k RTR
h -t 15.292425204 -s 1 -d 2 -p tcp -e 1084 -c 2 -a 0 -i 29 -k RTR
r -t 15.294995204 -s 0 -d 0 -p ack -e 40 -c 2 -a 0 -i 24 -k AGT
+ -t 15.294995204 -s 0 -d -1 -p tcp -e 1040 -c 2 -a 0 -i 33 -k AGT 
- -t 15.294995204 -s 0 -d -1 -p tcp -e 1040 -c 2 -a 0 -i 33 -k AGT
h -t 15.294995204 -s 0 -d -1 -p tcp -e 1040 -c 2 -a 0 -i 33 -k AGT
+ -t 15.294995204 -s 0 -d -1 -p tcp -e 1040 -c 2 -a 0 -i 34 -k AGT 
- -t 15.294995204 -s 0 -d -1 -p tcp -e 1040 -c 2 -a 0 -i 34 -k AGT
h -t 15.294995204 -s 0 -d -1 -p tcp -e 1040 -c 2 -a 0 -i 34 -k AGT
+ -t 15.294995204 -s 0 -d 3 -p tcp -e 1060 -c 2 -a 0 -i 33 -k RTR 
- -t 15.294995204 -s 0 -d 3 -p tcp -e 1060 -c 2 -a 0 -i 33 -k RTR
h -t 15.294995204 -s 0 -d 3 -p tcp -e 1060 -c 2 -a 0 -i 33 -k RTR
+ -t 15.294995204 -s 0 -d 3 -p tcp -e 1060 -c 2 -a 0 -i 34 -k RTR 
- -t 15.294995204 -s 0 -d 3 -p tcp -e 1060 -c 2 -a 0 -i 34 -k RTR
h -t 15.294995204 -s 0 -d 3 -p tcp -e 1060 -c 2 -a 0 -i 34 -k RTR
+ -t 15.297255480 -s 0 -d 1 -p ack -e 84 -c 2 -a 0 -i 31 -k RTR 
- -t 15.297255480 -s 0 -d 1 -p ack -e 84 -c 2 -a 0 -i 31 -k RTR
h -t 15.297255480 -s 0 -d 1 -p ack -e 84 -c 2 -a 0 -i 31 -k RTR
+ -t 15.307233480 -s 3 -d 6 -p tcp -e 1060 -c 2 -a 0 -i 33 -k RTR 
- -t 15.307233480 -s 3 -d 6 -p tcp -e 1060 -c 2 -a 0 -i 33 -k RTR
h -t 15.307233480 -s 3 -d 6 -p tcp -e 1060 -c 2 -a 0 -i 33 -k RTR
+ -t 15.317472146 -s 3 -d 6 -p tcp -e 1060 -c 2 -a 0 -i 34 -k RTR 
- -t 15.317472146 -s 3 -d 6 -p tcp -e 1060 -c 2 -a 0 -i 34 -k RTR
h -t 15.317472146 -s 3 -d 6 -p tcp -e 1060 -c 2 -a 0 -i 34 -k RTR
+ -t 15.327450146 -s 6 -d 7 -p tcp -e 1060 -c 2 -a 0 -i 33 -k RTR 
- -t 15.327450146 -s 6 -d 7 -p tcp -e 1060 -c 2 -a 0 -i 33 -k RTR
h -t 15.327450146 -s 6 -d 7 -p tcp -e 1060 -c 2 -a 0 -i 33 -k RTR
+ -t 15.337508813 -s 6 -d 7 -p tcp -e 1060 -c 2 -a 0 -i 34 -k RTR 
- -t 15.337508813 -s 6 -d 7 -p tcp -e 1060 -c 2 -a 0 -i 34 -k RTR
h -t 15.337508813 -s 6 -d 7 -p tcp -e 1060 -c 2 -a 0 -i 34 -k RTR
+ -t 15.339557089 -s 4 -d 1 -p ack -e 60 -c 2 -a 0 -i 32 -k RTR 
- -t 15.339557089 -s 4 -d 1 -p ack -e 60 -c 2 -a 0 -i 32 -k RTR
h -t 15.339557089 -s 4 -d 1 -p ack -e 60 -c 2 -a 0 -i 32 -k RTR
r -t 15.349857756 -s 2 -d 2 -p tcp -e 1040 -c 2 -a 0 -i 28 -k AGT
+ -t 15.349857756 -s 2 -d -1 -p ack -e 40 -c 2 -a 0 -i 35 -k AGT 
- -t 15.349857756 -s 2 -d -1 -p ack -e 40 -c 2 -a 0 -i 35 -k AGT
h -t 15.349857756 -s 2 -d -1 -p ack -e 40 -c 2 -a 0 -i 35 -k AGT
+ -t 15.349857756 -s 2 -d 5 -p ack -e 84 -c 2 -a 0 -i 35 -k RTR 
- -t 15.349857756 -s 2 -d 5 -p ack -e 84 -c 2 -a 0 -i 35 -k RTR
h -t 15.349857756 -s 2 -d 5 -p ack -e 84 -c 2 -a 0 -i 35 -k RTR
+ -t 15.352867756 -s 5 -d 4 -p ack -e 84 -c 2 -a 0 -i 35 -k RTR 
- -t 15.352867756 -s 5 -d 4 -p ack -e 84 -c 2 -a 0 -i 35 -k RTR
h -t 15.352867756 -s 5 -d 4 -p ack -e 84 -c 2 -a 0 -i 35 -k RTR
+ -t 15.355017756 -s 4 -d 3 -p ack -e 84 -c 2 -a 0 -i 35 -k RTR 
- -t 15.355017756 -s 4 -d 3 -p ack -e 84 -c 2 -a 0 -i 35 -k RTR
h -t 15.355017756 -s 4 -d 3 -p ack -e 84 -c 2 -a 0 -i 35 -k RTR
r -t 15.365718032 -s 2 -d 2 -p tcp -e 1040 -c 2 -a 0 -i 29 -k AGT
+ -t 15.365718032 -s 2 -d -1 -p ack -e 40 -c 2 -a 0 -i 36 -k AGT 
- -t 15.365718032 -s 2 -d -1 -p ack -e 40 -c 2 -a 0 -i 36 -k AGT
h -t 15.365718032 -s 2 -d -1 -p ack -e 40 -c 2 -a 0 -i 36 -k AGT
+ -t 15.365718032 -s 2 -d 5 -p ack -e 84 -c 2 -a 0 -i 36 -k RTR 
- -t 15.365718032 -s 2 -d 5 -p ack -e 84 -c 2 -a 0 -i 36 -k RTR
h -t 15.365718032 -s 2 -d 5 -p ack -e 84 -c 2 -a 0 -i 36 -k RTR
+ -t 15.370173523 -s 5 -d 4 -p ack -e 84 -c 2 -a 0 -i 36 -k RTR 
- -t 15.370173523 -s 5 -d 4 -p ack -e 84 -c 2 -a 0 -i 36 -k RTR
h -t 15.370173523 -s 5 -d 4 -p ack -e 84 -c 2 -a 0 -i 36 -k RTR
+ -t 15.372553799 -s 1 -d 0 -p ack -e 84 -c 2 -a 0 -i 30 -k RTR 
- -t 15.372553799 -s 1 -d 0 -p ack -e 84 -c 2 -a 0 -i 30 -k RTR
h -t 15.372553799 -s 1 -d 0 -p ack -e 84 -c 2 -a 0 -i 30 -k RTR
r -t 15.374894075 -s 1 -d 1 -p ack -e 40 -c 2 -a 0 -i 31 -k AGT
+ -t 15.374894075 -s 1 -d -1 -p tcp -e 1040 -c 2 -a 0 -i 37 -k AGT 
- -t 15.374894075 -s 1 -d -1 -p tcp -e 1040 -c 2 -a 0 -i 37 -k AGT
h -t 15.374894075 -s 1 -d -1 -p tcp -e 1040 -c 2 -a 0 -i 37 -k AGT
+ -t 15.374894075 -s 1 -d -1 -p tcp -e 1040 -c 2 -a 0 -i 38 -k AGT 
- -t 15.374894075 -s 1 -d -1 -p tcp -e 1040 -c 2 -a 0 -i 38 -k AGT
h -t 15.374894075 -s 1 -d -1 -p tcp -e 1040 -c 2 -a 0 -i 38 -k AGT
+ -t 15.374894075 -s 1 -d 0 -p tcp -e 1084 -c 2 -a 0 -i 37 -k RTR 
- -t 15.374894075 -s 1 -d 0 -p tcp -e 1084 -c 2 -a 0 -i 37 -k RTR
h -t 15.374894075 -s 1 -d 0 -p tcp -e 1084 -c 2 -a 0 -i 37 -k RTR
+ -t 15.374894075 -s 1 -d 0 -p tcp -e 1084 -c 2 -a 0 -i 38 -k RTR 
- -t 15.374894075 -s 1 -d 0 -p tcp -e 1084 -c 2 -a 0 -i 38 -k RTR
h -t 15.374894075 -s 1 -d 0 -p tcp -e 1084 -c 2 -a 0 -i 38 -k RTR
r -t 15.377124075 -s 0 -d 0 -p ack -e 40 -c 2 -a 0 -i 30 -k AGT
+ -t 15.377124075 -s 0 -d -1 -p tcp -e 1040 -c 2 -a 0 -i 39 -k AGT 
- -t 15.377124075 -s 0 -d -1 -p tcp -e 1040 -c 2 -a 0 -i 39 -k AGT
h -t 15.377124075 -s 0 -d -1 -p tcp -e 1040 -c 2 -a 0 -i 39 -k AGT
+ -t 15.377124075 -s 0 -d -1 -p tcp -e 1040 -c 2 -a 0 -i 40 -k AGT 
- -t 15.377124075 -s 0 -d -1 -p tcp -e 1040 -c 2 -a 0 -i 40 -k AGT
h -t 15.377124075 -s 0 -d -1 -p tcp -e 1040 -c 2 -a 0 -i 40 -k AGT
+ -t 15.377124075 -s 0 -d 3 -p tcp -e 1060 -c 2 -a 0 -i 39 -k RTR 
- -t 15.377124075 -s 0 -d 3 -p tcp -e 1060 -c 2 -a 0 -i 39 -k RTR
h -t 15.377124075 -s 0 -d 3 -p tcp -e 1060 -c 2 -a 0 -i 39 -k RTR
+ -t 15.377124075 -s 0 -d 3 -p tcp -e 1060 -c 2 -a 0 -i 40 -k RTR 
- -t 15.377124075 -s 0 -d 3 -p tcp -e 1060 -c 2 -a 0 -i 40 -k RTR
h -t 15.377124075 -s 0 -d 3 -p tcp -e 1060 -c 2 -a 0 -i 40 -k RTR
+ -t 15.387314742 -s 0 -d 3 -p tcp -e 1084 -c 2 -a 0 -i 37 -k RTR 
- -t 15.387314742 -s 0 -d 3 -p tcp -e 1084 -c 2 -a 0 -i 37 -k RTR
h -t 15.387314742 -s 0 -d 3 -p tcp -e 1084 -c 2 -a 0 -i 37 -k RTR
+ -t 15.397312742 -s 3 -d 6 -p tcp -e 1060 -c 2 -a 0 -i 39 -k RTR 
- -t 15.397312742 -s 3 -d 6 -p tcp -e 1060 -c 2 -a 0 -i 39 -k RTR
h -t 15.397312742 -s 3 -d 6 -p tcp -e 1060 -c 2 -a 0 -i 39 -k RTR
+ -t 15.407310742 -s 6 -d 7 -p tcp -e 1060 -c 2 -a 0 -i 39 -k RTR 
- -t 15.407310742 -s 6 -d 7 -p tcp -e 1060 -c 2 -a 0 -i 39 -k RTR
h -t 15.407310742 -s 6 -d 7 -p tcp -e 1060 -c 2 -a 0 -i 39 -k RTR
+ -t 15.417886232 -s 0 -d 3 -p tcp -e 1084 -c 2 -a 0 -i 38 -k RTR 
- -t 15.417886232 -s 0 -d 3 -p tcp -e 1084 -c 2 -a 0 -i 38 -k RTR
h -t 15.417886232 -s 0 -d 3 -p tcp -e 1084 -c 2 -a 0 -i 38 -k RTR
+ -t 15.428084232 -s 3 -d 6 -p tcp -e 1060 -c 2 -a 0 -i 40 -k RTR 
- -t 15.428084232 -s 3 -d 6 -p tcp -e 1060 -c 2 -a 0 -i 40 -k RTR
h -t 15.428084232 -s 3 -d 6 -p tcp -e 1060 -c 2 -a 0 -i 40 -k RTR
+ -t 15.430132508 -s 1 -d 0 -p ack -e 60 -c 2 -a 0 -i 32 -k RTR 
- -t 15.430132508 -s 1 -d 0 -p ack -e 60 -c 2 -a 0 -i 32 -k RTR
h -t 15.430132508 -s 1 -d 0 -p ack -e 60 -c 2 -a 0 -i 32 -k RTR
+ -t 15.440512785 -s 3 -d 6 -p tcp -e 1084 -c 2 -a 0 -i 37 -k RTR 
- -t 15.440512785 -s 3 -d 6 -p tcp -e 1084 -c 2 -a 0 -i 37 -k RTR
h -t 15.440512785 -s 3 -d 6 -p tcp -e 1084 -c 2 -a 0 -i 37 -k RTR
r -t 15.452225609 -s 7 -d 7 -p tcp -e 1040 -c 2 -a 0 -i 33 -k AGT
+ -t 15.452225609 -s 7 -d -1 -p ack -e 40 -c 2 -a 0 -i 41 -k AGT 
- -t 15.452225609 -s 7 -d -1 -p ack -e 40 -c 2 -a 0 -i 41 -k AGT
h -t 15.452225609 -s 7 -d -1 -p ack -e 40 -c 2 -a 0 -i 41 -k AGT
+ -t 15.452225609 -s 7 -d 4 -p ack -e 60 -c 2 -a 0 -i 41 -k RTR 
- -t 15.452225609 -s 7 -d 4 -p ack -e 60 -c 2 -a 0 -i 41 -k RTR
h -t 15.452225609 -s 7 -d 4 -p ack -e 60 -c 2 -a 0 -i 41 -k RTR
r -t 15.454505885 -s 3 -d 3 -p ack -e 40 -c 2 -a 0 -i 35 -k AGT
+ -t 15.454505885 -s 3 -d -1 -p tcp -e 1040 -c 2 -a 0 -i 42 -k AGT 
- -t 15.454505885 -s 3 -d -1 -p tcp -e 1040 -c 2 -a 0 -i 42 -k AGT
h -t 15.454505885 -s 3 -d -1 -p tcp -e 1040 -c 2 -a 0 -i 42 -k AGT
+ -t 15.454505885 -s 3 -d -1 -p tcp -e 1040 -c 2 -a 0 -i 43 -k AGT 
- -t 15.454505885 -s 3 -d -1 -p tcp -e 1040 -c 2 -a 0 -i 43 -k AGT
h -t 15.454505885 -s 3 -d -1 -p tcp -e 1040 -c 2 -a 0 -i 43 -k AGT
+ -t 15.454505885 -s 3 -d 0 -p tcp -e 1084 -c 2 -a 0 -i 42 -k RTR 
- -t 15.454505885 -s 3 -d 0 -p tcp -e 1084 -c 2 -a 0 -i 42 -k RTR
h -t 15.454505885 -s 3 -d 0 -p tcp -e 1084 -c 2 -a 0 -i 42 -k RTR
+ -t 15.454505885 -s 3 -d 0 -p tcp -e 1060 -c 2 -a 0 -i 43 -k RTR 
- -t 15.454505885 -s 3 -d 0 -p tcp -e 1060 -c 2 -a 0 -i 43 -k RTR
h -t 15.454505885 -s 3 -d 0 -p tcp -e 1060 -c 2 -a 0 -i 43 -k RTR
+ -t 15.464846161 -s 3 -d 6 -p tcp -e 1084 -c 2 -a 0 -i 38 -k RTR 
- -t 15.464846161 -s 3 -d 6 -p tcp -e 1084 -c 2 -a 0 -i 38 -k RTR
h -t 15.464846161 -s 3 -d 6 -p tcp -e 1084 -c 2 -a 0 -i 38 -k RTR
r -t 15.474854828 -s 7 -d 7 -p tcp -e 1040 -c 2 -a 0 -i 34 -k AGT
+ -t 15.474854828 -s 7 -d -1 -p ack -e 40 -c 2 -a 0 -i 44 -k AGT 
- -t 15.474854828 -s 7 -d -1 -p ack -e 40 -c 2 -a 0 -i 44 -k AGT
h -t 15.474854828 -s 7 -d -1 -p ack -e 40 -c 2 -a 0 -i 44 -k AGT
+ -t 15.474854828 -s 7 -d 4 -p ack -e 60 -c 2 -a 0 -i 44 -k RTR 
- -t 15.474854828 -s 7 -d 4 -p ack -e 60 -c 2 -a 0 -i 44 -k RTR
h -t 15.474854828 -s 7 -d 4 -p ack -e 60 -c 2 -a 0 -i 44 -k RTR
r -t 15.485073494 -s 7 -d 7 -p tcp -e 1040 -c 2 -a 0 -i 39 -k AGT
+ -t 15.485073494 -s 7 -d -1 -p ack -e 40 -c 2 -a 0 -i 45 -k AGT 
- -t 15.485073494 -s 7 -d -1 -p ack -e 40 -c 2 -a 0 -i 45 -k AGT
h -t 15.485073494 -s 7 -d -1 -p ack -e 40 -c 2 -a 0 -i 45 -k AGT
+ -t 15.485073494 -s 7 -d 4 -p ack -e 60 -c 2 -a 0 -i 45 -k RTR 
- -t 15.485073494 -s 7 -d 4 -p ack -e 60 -c 2 -a 0 -i 45 -k RTR
h -t 15.485073494 -s 7 -d 4 -p ack -e 60 -c 2 -a 0 -i 45 -k RTR
+ -t 15.487151494 -s 4 -d 1 -p ack -e 60 -c 2 -a 0 -i 41 -k RTR 
- -t 15.487151494 -s 4 -d 1 -p ack -e 60 -c 2 -a 0 -i 41 -k RTR
h -t 15.487151494 -s 4 -d 1 -p ack -e 60 -c 2 -a 0 -i 41 -k RTR
+ -t 15.489411770 -s 4 -d 3 -p ack -e 84 -c 2 -a 0 -i 36 -k RTR 
- -t 15.489411770 -s 4 -d 3 -p ack -e 84 -c 2 -a 0 -i 36 -k RTR
h -t 15.489411770 -s 4 -d 3 -p ack -e 84 -c 2 -a 0 -i 36 -k RTR
+ -t 15.499440437 -s 6 -d 7 -p tcp -e 1060 -c 2 -a 0 -i 40 -k RTR 
- -t 15.499440437 -s 6 -d 7 -p tcp -e 1060 -c 2 -a 0 -i 40 -k RTR
h -t 15.499440437 -s 6 -d 7 -p tcp -e 1060 -c 2 -a 0 -i 40 -k RTR
r -t 15.509518437 -s 7 -d 7 -p tcp -e 1040 -c 2 -a 0 -i 40 -k AGT
+ -t 15.509518437 -s 7 -d -1 -p ack -e 40 -c 2 -a 0 -i 46 -k AGT 
- -t 15.509518437 -s 7 -d -1 -p ack -e 40 -c 2 -a 0 -i 46 -k AGT
h -t 15.509518437 -s 7 -d -1 -p ack -e 40 -c 2 -a 0 -i 46 -k AGT
+ -t 15.509518437 -s 7 -d 4 -p ack -e 60 -c 2 -a 0 -i 46 -k RTR 
- -t 15.509518437 -s 7 -d 4 -p ack -e 60 -c 2 -a 0 -i 46 -k RTR
h -t 15.509518437 -s 7 -d 4 -p ack -e 60 -c 2 -a 0 -i 46 -k RTR
+ -t 15.511496437 -s 4 -d 1 -p ack -e 60 -c 2 -a 0 -i 44 -k RTR 