s 0.000000000 _0_ RTR  --- 0 WCETT 284 [0 0 0 0] ------- [0:255 -1:255 1 0] [0x1 1 [0 2] 4.000000 ] (HELLO)
s 0.000000000 _1_ RTR  --- 0 WCETT 284 [0 0 0 0] ------- [1:255 -1:255 1 0] [0x1 1 [1 2] 4.000000 ] (HELLO)
s 0.000000000 _2_ RTR  --- 0 WCETT 284 [0 0 0 0] ------- [2:255 -1:255 1 0] [0x1 1 [2 2] 4.000000 ] (HELLO)
s 0.000000000 _3_ RTR  --- 0 WCETT 284 [0 0 0 0] ------- [3:255 -1:255 1 0] [0x1 1 [3 2] 4.000000 ] (HELLO)
s 0.000000000 _4_ RTR  --- 0 WCETT 284 [0 0 0 0] ------- [4:255 -1:255 1 0] [0x1 1 [4 2] 4.000000 ] (HELLO)
s 0.000000000 _5_ RTR  --- 0 WCETT 284 [0 0 0 0] ------- [5:255 -1:255 1 0] [0x1 1 [5 2] 4.000000 ] (HELLO)
s 0.000000000 _6_ RTR  --- 0 WCETT 284 [0 0 0 0] ------- [6:255 -1:255 1 0] [0x1 1 [6 2] 4.000000 ] (HELLO)
s 0.000000000 _7_ RTR  --- 0 WCETT 284 [0 0 0 0] ------- [7:255 -1:255 1 0] [0x1 1 [7 2] 4.000000 ] (HELLO)
s 0.000000000 _8_ RTR  --- 0 WCETT 284 [0 0 0 0] ------- [8:255 -1:255 1 0] [0x1 1 [8 2] 4.000000 ] (HELLO)
s 0.000000000 _9_ RTR  --- 0 WCETT 284 [0 0 0 0] ------- [9:255 -1:255 1 0] [0x1 1 [9 2] 4.000000 ] (HELLO)
s 0.000000000 _10_ RTR  --- 0 WCETT 284 [0 0 0 0] ------- [10:255 -1:255 1 0] [0x1 1 [10 2] 4.000000 ] (HELLO)
s 0.000000000 _11_ RTR  --- 0 WCETT 284 [0 0 0 0] ------- [11:255 -1:255 1 0] [0x1 1 [11 2] 4.000000 ] (HELLO)
s 0.000000000 _12_ RTR  --- 0 WCETT 284 [0 0 0 0] ------- [12:255 -1:255 1 0] [0x1 1 [12 2] 4.000000 ] (HELLO)
s 0.000000000 _13_ RTR  --- 0 WCETT 284 [0 0 0 0] ------- [13:255 -1:255 1 0] [0x1 1 [13 2] 4.000000 ] (HELLO)
s 0.000000000 _14_ RTR  --- 0 WCETT 284 [0 0 0 0] ------- [14:255 -1:255 1 0] [0x1 1 [14 2] 4.000000 ] (HELLO)
s 0.000000000 _15_ RTR  --- 0 WCETT 284 [0 0 0 0] ------- [15:255 -1:255 1 0] [0x1 1 [15 2] 4.000000 ] (HELLO)
s 0.000000000 _16_ RTR  --- 0 WCETT 284 [0 0 0 0] ------- [16:255 -1:255 1 0] [0x1 1 [16 2] 4.000000 ] (HELLO)
s 0.000000000 _17_ RTR  --- 0 WCETT 284 [0 0 0 0] ------- [17:255 -1:255 1 0] [0x1 1 [17 2] 4.000000 ] (HELLO)
s 0.000000000 _18_ RTR  --- 0 WCETT 284 [0 0 0 0] ------- [18:255 -1:255 1 0] [0x1 1 [18 2] 4.000000 ] (HELLO)
s 0.000000000 _19_ RTR  --- 0 WCETT 284 [0 0 0 0] ------- [19:255 -1:255 1 0] [0x1 1 [19 2] 4.000000 ] (HELLO)
s 0.000000000 _20_ RTR  --- 0 WCETT 284 [0 0 0 0] ------- [20:255 -1:255 1 0] [0x1 1 [20 2] 4.000000 ] (HELLO)
r 0.002788333 _2_ RTR  --- 0 WCETT 284 [0 ffffffff 5 800] ------- [5:255 -1:255 1 0] [0x1 1 [5 2] 4.000000 ] (HELLO)
r 0.002788333 _8_ RTR  --- 0 WCETT 284 [0 ffffffff 5 800] ------- [5:255 -1:255 1 0] [0x1 1 [5 2] 4.000000 ] (HELLO)
r 0.002788667 _4_ RTR  --- 0 WCETT 284 [0 ffffffff 5 800] ------- [5:255 -1:255 1 0] [0x1 1 [5 2] 4.000000 ] (HELLO)
r 0.002788667 _11_ RTR  --- 0 WCETT 284 [0 ffffffff 5 800] ------- [5:255 -1:255 1 0] [0x1 1 [5 2] 4.000000 ] (HELLO)
r 0.002788745 _1_ RTR  --- 0 WCETT 284 [0 ffffffff 5 800] ------- [5:255 -1:255 1 0] [0x1 1 [5 2] 4.000000 ] (HELLO)
r 0.006086667 _5_ RTR  --- 0 WCETT 284 [0 ffffffff 2 800] ------- [2:255 -1:255 1 0] [0x1 1 [2 2] 4.000000 ] (HELLO)
r 0.006087000 _1_ RTR  --- 0 WCETT 284 [0 ffffffff 2 800] ------- [2:255 -1:255 1 0] [0x1 1 [2 2] 4.000000 ] (HELLO)
r 0.006087000 _8_ RTR  --- 0 WCETT 284 [0 ffffffff 2 800] ------- [2:255 -1:255 1 0] [0x1 1 [2 2] 4.000000 ] (HELLO)
r 0.006290667 _15_ RTR  --- 0 WCETT 284 [0 ffffffff c 800] ------- [12:255 -1:255 1 0] [0x1 1 [12 2] 4.000000 ] (HELLO)
r 0.006290805 _19_ RTR  --- 0 WCETT 284 [0 ffffffff c 800] ------- [12:255 -1:255 1 0] [0x1 1 [12 2] 4.000000 ] (HELLO)
r 0.009329138 _15_ RTR  --- 0 WCETT 284 [0 ffffffff 13 800] ------- [19:255 -1:255 1 0] [0x1 1 [19 2] 4.000000 ] (HELLO)
r 0.009329138 _16_ RTR  --- 0 WCETT 284 [0 ffffffff 13 800] ------- [19:255 -1:255 1 0] [0x1 1 [19 2] 4.000000 ] (HELLO)
r 0.009329276 _12_ RTR  --- 0 WCETT 284 [0 ffffffff 13 800] ------- [19:255 -1:255 1 0] [0x1 1 [19 2] 4.000000 ] (HELLO)
r 0.009329276 _13_ RTR  --- 0 WCETT 284 [0 ffffffff 13 800] ------- [19:255 -1:255 1 0] [0x1 1 [19 2] 4.000000 ] (HELLO)
r 0.009329471 _18_ RTR  --- 0 WCETT 284 [0 ffffffff 13 800] ------- [19:255 -1:255 1 0] [0x1 1 [19 2] 4.000000 ] (HELLO)
r 0.009329550 _9_ RTR  --- 0 WCETT 284 [0 ffffffff 13 800] ------- [19:255 -1:255 1 0] [0x1 1 [19 2] 4.000000 ] (HELLO)
r 0.009329550 _10_ RTR  --- 0 WCETT 284 [0 ffffffff 13 800] ------- [19:255 -1:255 1 0] [0x1 1 [19 2] 4.000000 ] (HELLO)
r 0.009329550 _20_ RTR  --- 0 WCETT 284 [0 ffffffff 13 800] ------- [19:255 -1:255 1 0] [0x1 1 [19 2] 4.000000 ] (HELLO)
r 0.012307471 _13_ RTR  --- 0 WCETT 284 [0 ffffffff 10 800] ------- [16:255 -1:255 1 0] [0x1 1 [16 2] 4.000000 ] (HELLO)
r 0.012307471 _19_ RTR  --- 0 WCETT 284 [0 ffffffff 10 800] ------- [16:255 -1:255 1 0] [0x1 1 [16 2] 4.000000 ] (HELLO)
r 0.012307471 _18_ RTR  --- 0 WCETT 284 [0 ffffffff 10 800] ------- [16:255 -1:255 1 0] [0x1 1 [16 2] 4.000000 ] (HELLO)
r 0.012307609 _20_ RTR  --- 0 WCETT 284 [0 ffffffff 10 800] ------- [16:255 -1:255 1 0] [0x1 1 [16 2] 4.000000 ] (HELLO)
r 0.012307805 _10_ RTR  --- 0 WCETT 284 [0 ffffffff 10 800] ------- [16:255 -1:255 1 0] [0x1 1 [16 2] 4.000000 ] (HELLO)
r 0.012307805 _15_ RTR  --- 0 WCETT 284 [0 ffffffff 10 800] ------- [16:255 -1:255 1 0] [0x1 1 [16 2] 4.000000 ] (HELLO)
r 0.012307805 _17_ RTR  --- 0 WCETT 284 [0 ffffffff 10 800] ------- [16:255 -1:255 1 0] [0x1 1 [16 2] 4.000000 ] (HELLO)
r 0.012307883 _12_ RTR  --- 0 WCETT 284 [0 ffffffff 10 800] ------- [16:255 -1:255 1 0] [0x1 1 [16 2] 4.000000 ] (HELLO)
r 0.012307883 _14_ RTR  --- 0 WCETT 284 [0 ffffffff 10 800] ------- [16:255 -1:255 1 0] [0x1 1 [16 2] 4.000000 ] (HELLO)
r 0.015066138 _7_ RTR  --- 0 WCETT 284 [0 ffffffff a 800] ------- [10:255 -1:255 1 0] [0x1 1 [10 2] 4.000000 ] (HELLO)
r 0.015066138 _13_ RTR  --- 0 WCETT 284 [0 ffffffff a 800] ------- [10:255 -1:255 1 0] [0x1 1 [10 2] 4.000000 ] (HELLO)
r 0.015066276 _20_ RTR  --- 0 WCETT 284 [0 ffffffff a 800] ------- [10:255 -1:255 1 0] [0x1 1 [10 2] 4.000000 ] (HELLO)
r 0.015066471 _4_ RTR  --- 0 WCETT 284 [0 ffffffff a 800] ------- [10:255 -1:255 1 0] [0x1 1 [10 2] 4.000000 ] (HELLO)
r 0.015066471 _9_ RTR  --- 0 WCETT 284 [0 ffffffff a 800] ------- [10:255 -1:255 1 0] [0x1 1 [10 2] 4.000000 ] (HELLO)
r 0.015066471 _16_ RTR  --- 0 WCETT 284 [0 ffffffff a 800] ------- [10:255 -1:255 1 0] [0x1 1 [10 2] 4.000000 ] (HELLO)
r 0.015066471 _11_ RTR  --- 0 WCETT 284 [0 ffffffff a 800] ------- [10:255 -1:255 1 0] [0x1 1 [10 2] 4.000000 ] (HELLO)
r 0.015066550 _19_ RTR  --- 0 WCETT 284 [0 ffffffff a 800] ------- [10:255 -1:255 1 0] [0x1 1 [10 2] 4.000000 ] (HELLO)
r 0.015066550 _12_ RTR  --- 0 WCETT 284 [0 ffffffff a 800] ------- [10:255 -1:255 1 0] [0x1 1 [10 2] 4.000000 ] (HELLO)
r 0.015066550 _6_ RTR  --- 0 WCETT 284 [0 ffffffff a 800] ------- [10:255 -1:255 1 0] [0x1 1 [10 2] 4.000000 ] (HELLO)
r 0.015066550 _18_ RTR  --- 0 WCETT 284 [0 ffffffff a 800] ------- [10:255 -1:255 1 0] [0x1 1 [10 2] 4.000000 ] (HELLO)
r 0.015066550 _8_ RTR  --- 0 WCETT 284 [0 ffffffff a 800] ------- [10:255 -1:255 1 0] [0x1 1 [10 2] 4.000000 ] (HELLO)
r 0.015066550 _14_ RTR  --- 0 WCETT 284 [0 ffffffff a 800] ------- [10:255 -1:255 1 0] [0x1 1 [10 2] 4.000000 ] (HELLO)
r 0.017864609 _18_ RTR  --- 0 WCETT 284 [0 ffffffff 14 800] ------- [20:255 -1:255 1 0] [0x1 1 [20 2] 4.000000 ] (HELLO)
r 0.017864609 _13_ RTR  --- 0 WCETT 284 [0 ffffffff 14 800] ------- [20:255 -1:255 1 0] [0x1 1 [20 2] 4.000000 ] (HELLO)
r 0.017864609 _14_ RTR  --- 0 WCETT 284 [0 ffffffff 14 800] ------- [20:255 -1:255 1 0] [0x1 1 [20 2] 4.000000 ] (HELLO)
r 0.017864748 _16_ RTR  --- 0 WCETT 284 [0 ffffffff 14 800] ------- [20:255 -1:255 1 0] [0x1 1 [20 2] 4.000000 ] (HELLO)
r 0.017864748 _10_ RTR  --- 0 WCETT 284 [0 ffffffff 14 800] ------- [20:255 -1:255 1 0] [0x1 1 [20 2] 4.000000 ] (HELLO)
r 0.017864748 _11_ RTR  --- 0 WCETT 284 [0 ffffffff 14 800] ------- [20:255 -1:255 1 0] [0x1 1 [20 2] 4.000000 ] (HELLO)
r 0.017864748 _17_ RTR  --- 0 WCETT 284 [0 ffffffff 14 800] ------- [20:255 -1:255 1 0] [0x1 1 [20 2] 4.000000 ] (HELLO)
r 0.017865021 _7_ RTR  --- 0 WCETT 284 [0 ffffffff 14 800] ------- [20:255 -1:255 1 0] [0x1 1 [20 2] 4.000000 ] (HELLO)
r 0.017865021 _19_ RTR  --- 0 WCETT 284 [0 ffffffff 14 800] ------- [20:255 -1:255 1 0] [0x1 1 [20 2] 4.000000 ] (HELLO)
r 0.017865021 _8_ RTR  --- 0 WCETT 284 [0 ffffffff 14 800] ------- [20:255 -1:255 1 0] [0x1 1 [20 2] 4.000000 ] (HELLO)
r 0.020682943 _11_ RTR  --- 0 WCETT 284 [0 ffffffff e 800] ------- [14:255 -1:255 1 0] [0x1 1 [14 2] 4.000000 ] (HELLO)
r 0.020682943 _20_ RTR  --- 0 WCETT 284 [0 ffffffff e 800] ------- [14:255 -1:255 1 0] [0x1 1 [14 2] 4.000000 ] (HELLO)
r 0.020682943 _17_ RTR  --- 0 WCETT 284 [0 ffffffff e 800] ------- [14:255 -1:255 1 0] [0x1 1 [14 2] 4.000000 ] (HELLO)
r 0.020683081 _18_ RTR  --- 0 WCETT 284 [0 ffffffff e 800] ------- [14:255 -1:255 1 0] [0x1 1 [14 2] 4.000000 ] (HELLO)
r 0.020683276 _8_ RTR  --- 0 WCETT 284 [0 ffffffff e 800] ------- [14:255 -1:255 1 0] [0x1 1 [14 2] 4.000000 ] (HELLO)
r 0.020683276 _13_ RTR  --- 0 WCETT 284 [0 ffffffff e 800] ------- [14:255 -1:255 1 0] [0x1 1 [14 2] 4.000000 ] (HELLO)
r 0.020683355 _16_ RTR  --- 0 WCETT 284 [0 ffffffff e 800] ------- [14:255 -1:255 1 0] [0x1 1 [14 2] 4.000000 ] (HELLO)
r 0.023481276 _14_ RTR  --- 0 WCETT 284 [0 ffffffff 11 800] ------- [17:255 -1:255 1 0] [0x1 1 [17 2] 4.000000 ] (HELLO)
r 0.023481276 _18_ RTR  --- 0 WCETT 284 [0 ffffffff 11 800] ------- [17:255 -1:255 1 0] [0x1 1 [17 2] 4.000000 ] (HELLO)
r 0.023481414 _20_ RTR  --- 0 WCETT 284 [0 ffffffff 11 800] ------- [17:255 -1:255 1 0] [0x1 1 [17 2] 4.000000 ] (HELLO)
r 0.023481609 _11_ RTR  --- 0 WCETT 284 [0 ffffffff 11 800] ------- [17:255 -1:255 1 0] [0x1 1 [17 2] 4.000000 ] (HELLO)
r 0.023481609 _16_ RTR  --- 0 WCETT 284 [0 ffffffff 11 800] ------- [17:255 -1:255 1 0] [0x1 1 [17 2] 4.000000 ] (HELLO)
r 0.024830609 _0_ RTR  --- 0 WCETT 284 [0 ffffffff 3 800] ------- [3:255 -1:255 1 0] [0x1 1 [3 2] 4.000000 ] (HELLO)
r 0.024830609 _6_ RTR  --- 0 WCETT 284 [0 ffffffff 3 800] ------- [3:255 -1:255 1 0] [0x1 1 [3 2] 4.000000 ] (HELLO)
r 0.024830943 _4_ RTR  --- 0 WCETT 284 [0 ffffffff 3 800] ------- [3:255 -1:255 1 0] [0x1 1 [3 2] 4.000000 ] (HELLO)
r 0.024831021 _1_ RTR  --- 0 WCETT 284 [0 ffffffff 3 800] ------- [3:255 -1:255 1 0] [0x1 1 [3 2] 4.000000 ] (HELLO)
r 0.027609355 _4_ RTR  --- 0 WCETT 284 [0 ffffffff 1 800] ------- [1:255 -1:255 1 0] [0x1 1 [1 2] 4.000000 ] (HELLO)
r 0.027609688 _0_ RTR  --- 0 WCETT 284 [0 ffffffff 1 800] ------- [1:255 -1:255 1 0] [0x1 1 [1 2] 4.000000 ] (HELLO)
r 0.027609688 _7_ RTR  --- 0 WCETT 284 [0 ffffffff 1 800] ------- [1:255 -1:255 1 0] [0x1 1 [1 2] 4.000000 ] (HELLO)
r 0.027609688 _2_ RTR  --- 0 WCETT 284 [0 ffffffff 1 800] ------- [1:255 -1:255 1 0] [0x1 1 [1 2] 4.000000 ] (HELLO)
r 0.027609767 _3_ RTR  --- 0 WCETT 284 [0 ffffffff 1 800] ------- [1:255 -1:255 1 0] [0x1 1 [1 2] 4.000000 ] (HELLO)
r 0.027609767 _5_ RTR  --- 0 WCETT 284 [0 ffffffff 1 800] ------- [1:255 -1:255 1 0] [0x1 1 [1 2] 4.000000 ] (HELLO)
r 0.030408021 _4_ RTR  --- 0 WCETT 284 [0 ffffffff 7 800] ------- [7:255 -1:255 1 0] [0x1 1 [7 2] 4.000000 ] (HELLO)
r 0.030408021 _10_ RTR  --- 0 WCETT 284 [0 ffffffff 7 800] ------- [7:255 -1:255 1 0] [0x1 1 [7 2] 4.000000 ] (HELLO)
r 0.030408355 _1_ RTR  --- 0 WCETT 284 [0 ffffffff 7 800] ------- [7:255 -1:255 1 0] [0x1 1 [7 2] 4.000000 ] (HELLO)
r 0.030408355 _6_ RTR  --- 0 WCETT 284 [0 ffffffff 7 800] ------- [7:255 -1:255 1 0] [0x1 1 [7 2] 4.000000 ] (HELLO)
r 0.030408355 _13_ RTR  --- 0 WCETT 284 [0 ffffffff 7 800] ------- [7:255 -1:255 1 0] [0x1 1 [7 2] 4.000000 ] (HELLO)
r 0.030408355 _8_ RTR  --- 0 WCETT 284 [0 ffffffff 7 800] ------- [7:255 -1:255 1 0] [0x1 1 [7 2] 4.000000 ] (HELLO)
r 0.030408434 _9_ RTR  --- 0 WCETT 284 [0 ffffffff 7 800] ------- [7:255 -1:255 1 0] [0x1 1 [7 2] 4.000000 ] (HELLO)
r 0.030408434 _3_ RTR  --- 0 WCETT 284 [0 ffffffff 7 800] ------- [7:255 -1:255 1 0] [0x1 1 [7 2] 4.000000 ] (HELLO)
r 0.030408434 _20_ RTR  --- 0 WCETT 284 [0 ffffffff 7 800] ------- [7:255 -1:255 1 0] [0x1 1 [7 2] 4.000000 ] (HELLO)
r 0.030408434 _5_ RTR  --- 0 WCETT 284 [0 ffffffff 7 800] ------- [7:255 -1:255 1 0] [0x1 1 [7 2] 4.000000 ] (HELLO)
r 0.030408434 _11_ RTR  --- 0 WCETT 284 [0 ffffffff 7 800] ------- [7:255 -1:255 1 0] [0x1 1 [7 2] 4.000000 ] (HELLO)
r 0.033206688 _3_ RTR  --- 0 WCETT 284 [0 ffffffff 6 800] ------- [6:255 -1:255 1 0] [0x1 1 [6 2] 4.000000 ] (HELLO)
r 0.033206688 _9_ RTR  --- 0 WCETT 284 [0 ffffffff 6 800] ------- [6:255 -1:255 1 0] [0x1 1 [6 2] 4.000000 ] (HELLO)
r 0.033206767 _6_ RTR  --- 0 WCETT 284 [0 ffffffff 9 800] ------- [9:255 -1:255 1 0] [0x1 1 [9 2] 4.000000 ] (HELLO)
r 0.033206767 _12_ RTR  --- 0 WCETT 284 [0 ffffffff 9 800] ------- [9:255 -1:255 1 0] [0x1 1 [9 2] 4.000000 ] (HELLO)
r 0.036350100 _8_ RTR  --- 0 WCETT 284 [0 ffffffff b 800] ------- [11:255 -1:255 1 0] [0x1 1 [11 2] 4.000000 ] (HELLO)
r 0.036350102 _16_ RTR  --- 0 WCETT 284 [0 ffffffff 12 800] ------- [18:255 -1:255 1 0] [0x1 1 [18 2] 4.000000 ] (HELLO)
r 0.036350102 _17_ RTR  --- 0 WCETT 284 [0 ffffffff 12 800] ------- [18:255 -1:255 1 0] [0x1 1 [18 2] 4.000000 ] (HELLO)
r 0.036350141 _5_ RTR  --- 0 WCETT 284 [0 ffffffff 8 800] ------- [8:255 -1:255 1 0] [0x1 1 [8 2] 4.000000 ] (HELLO)
r 0.036350141 _11_ RTR  --- 0 WCETT 284 [0 ffffffff 8 800] ------- [8:255 -1:255 1 0] [0x1 1 [8 2] 4.000000 ] (HELLO)
r 0.036350436 _19_ RTR  --- 0 WCETT 284 [0 ffffffff 12 800] ------- [18:255 -1:255 1 0] [0x1 1 [18 2] 4.000000 ] (HELLO)
r 0.039493084 _10_ RTR  --- 0 WCETT 284 [0 ffffffff d 800] ------- [13:255 -1:255 1 0] [0x1 1 [13 2] 4.000000 ] (HELLO)
r 0.039493084 _16_ RTR  --- 0 WCETT 284 [0 ffffffff d 800] ------- [13:255 -1:255 1 0] [0x1 1 [13 2] 4.000000 ] (HELLO)
r 0.039493084 _20_ RTR  --- 0 WCETT 284 [0 ffffffff d 800] ------- [13:255 -1:255 1 0] [0x1 1 [13 2] 4.000000 ] (HELLO)
r 0.039493222 _19_ RTR  --- 0 WCETT 284 [0 ffffffff d 800] ------- [13:255 -1:255 1 0] [0x1 1 [13 2] 4.000000 ] (HELLO)
r 0.039493222 _18_ RTR  --- 0 WCETT 284 [0 ffffffff d 800] ------- [13:255 -1:255 1 0] [0x1 1 [13 2] 4.000000 ] (HELLO)
r 0.039493417 _7_ RTR  --- 0 WCETT 284 [0 ffffffff d 800] ------- [13:255 -1:255 1 0] [0x1 1 [13 2] 4.000000 ] (HELLO)
r 0.039493417 _12_ RTR  --- 0 WCETT 284 [0 ffffffff d 800] ------- [13:255 -1:255 1 0] [0x1 1 [13 2] 4.000000 ] (HELLO)
r 0.039493417 _14_ RTR  --- 0 WCETT 284 [0 ffffffff d 800] ------- [13:255 -1:255 1 0] [0x1 1 [13 2] 4.000000 ] (HELLO)
r 0.039493496 _15_ RTR  --- 0 WCETT 284 [0 ffffffff d 800] ------- [13:255 -1:255 1 0] [0x1 1 [13 2] 4.000000 ] (HELLO)
r 0.039493496 _9_ RTR  --- 0 WCETT 284 [0 ffffffff d 800] ------- [13:255 -1:255 1 0] [0x1 1 [13 2] 4.000000 ] (HELLO)
r 0.039493496 _11_ RTR  --- 0 WCETT 284 [0 ffffffff d 800] ------- [13:255 -1:255 1 0] [0x1 1 [13 2] 4.000000 ] (HELLO)
r 0.039493496 _17_ RTR  --- 0 WCETT 284 [0 ffffffff d 800] ------- [13:255 -1:255 1 0] [0x1 1 [13 2] 4.000000 ] (HELLO)
r 0.042616084 _1_ RTR  --- 0 WCETT 284 [0 ffffffff 4 800] ------- [4:255 -1:255 1 0] [0x1 1 [4 2] 4.000000 ] (HELLO)
r 0.042616084 _7_ RTR  --- 0 WCETT 284 [0 ffffffff 4 800] ------- [4:255 -1:255 1 0] [0x1 1 [4 2] 4.000000 ] (HELLO)
r 0.042616417 _3_ RTR  --- 0 WCETT 284 [0 ffffffff 4 800] ------- [4:255 -1:255 1 0] [0x1 1 [4 2] 4.000000 ] (HELLO)
r 0.042616417 _10_ RTR  --- 0 WCETT 284 [0 ffffffff 4 800] ------- [4:255 -1:255 1 0] [0x1 1 [4 2] 4.000000 ] (HELLO)
r 0.042616417 _5_ RTR  --- 0 WCETT 284 [0 ffffffff 4 800] ------- [4:255 -1:255 1 0] [0x1 1 [4 2] 4.000000 ] (HELLO)
r 0.042616496 _6_ RTR  --- 0 WCETT 284 [0 ffffffff 4 800] ------- [4:255 -1:255 1 0] [0x1 1 [4 2] 4.000000 ] (HELLO)
r 0.042616496 _0_ RTR  --- 0 WCETT 284 [0 ffffffff 4 800] ------- [4:255 -1:255 1 0] [0x1 1 [4 2] 4.000000 ] (HELLO)
r 0.042616496 _2_ RTR  --- 0 WCETT 284 [0 ffffffff 4 800] ------- [4:255 -1:255 1 0] [0x1 1 [4 2] 4.000000 ] (HELLO)
r 0.042616496 _8_ RTR  --- 0 WCETT 284 [0 ffffffff 4 800] ------- [4:255 -1:255 1 0] [0x1 1 [4 2] 4.000000 ] (HELLO)
s 1.000000000 _0_ RTR  --- 0 WCETT 284 [0 0 0 0] ------- [0:255 -1:255 1 0] [0x1 1 [0 8] 4.000000 ] (HELLO)
s 1.000000000 _1_ RTR  --- 0 WCETT 284 [0 0 0 0] ------- [1:255 -1:255 1 0] [0x1 1 [1 12] 4.000000 ] (HELLO)
s 1.000000000 _2_ RTR  --- 0 WCETT 284 [0 0 0 0] ------- [2:255 -1:255 1 0] [0x1 1 [2 8] 4.000000 ] (HELLO)
s 1.000000000 _3_ RTR  --- 0 WCETT 284 [0 0 0 0] ------- [3:255 -1:255 1 0] [0x1 1 [3 10] 4.000000 ] (HELLO)
s 1.000000000 _4_ RTR  --- 0 WCETT 284 [0 0 0 0] ------- [4:255 -1:255 1 0] [0x1 1 [4 12] 4.000000 ] (HELLO)
s 1.000000000 _5_ RTR  --- 0 WCETT 284 [0 0 0 0] ------- [5:255 -1:255 1 0] [0x1 1 [5 12] 4.000000 ] (HELLO)
s 1.000000000 _6_ RTR  --- 0 WCETT 284 [0 0 0 0] ------- [6:255 -1:255 1 0] [0x1 1 [6 12] 4.000000 ] (HELLO)
s 1.000000000 _7_ RTR  --- 0 WCETT 284 [0 0 0 0] ------- [7:255 -1:255 1 0] [0x1 1 [7 12] 4.000000 ] (HELLO)
s 1.000000000 _8_ RTR  --- 0 WCETT 284 [0 0 0 0] ------- [8:255 -1:255 1 0] [0x1 1 [8 18] 4.000000 ] (HELLO)
s 1.000000000 _9_ RTR  --- 0 WCETT 284 [0 0 0 0] ------- [9:255 -1:255 1 0] [0x1 1 [9 12] 4.000000 ] (HELLO)
s 1.000000000 _10_ RTR  --- 0 WCETT 284 [0 0 0 0] ------- [10:255 -1:255 1 0] [0x1 1 [10 14] 4.000000 ] (HELLO)
s 1.000000000 _11_ RTR  --- 0 WCETT 284 [0 0 0 0] ------- [11:255 -1:255 1 0] [0x1 1 [11 18] 4.000000 ] (HELLO)
s 1.000000000 _12_ RTR  --- 0 WCETT 284 [0 0 0 0] ------- [12:255 -1:255 1 0] [0x1 1 [12 12] 4.000000 ] (HELLO)
s 1.000000000 _13_ RTR  --- 0 WCETT 284 [0 0 0 0] ------- [13:255 -1:255 1 0] [0x1 1 [13 14] 4.000000 ] (HELLO)
s 1.000000000 _14_ RTR  --- 0 WCETT 284 [0 0 0 0] ------- [14:255 -1:255 1 0] [0x1 1 [14 12] 4.000000 ] (HELLO)
s 1.000000000 _15_ RTR  --- 0 WCETT 284 [0 0 0 0] ------- [15:255 -1:255 1 0] [0x1 1 [15 10] 4.000000 ] (HELLO)
s 1.000000000 _16_ RTR  --- 0 WCETT 284 [0 0 0 0] ------- [16:255 -1:255 1 0] [0x1 1 [16 16] 4.000000 ] (HELLO)
s 1.000000000 _17_ RTR  --- 0 WCETT 284 [0 0 0 0] ------- [17:255 -1:255 1 0] [0x1 1 [17 12] 4.000000 ] (HELLO)
s 1.000000000 _18_ RTR  --- 0 WCETT 284 [0 0 0 0] ------- [18:255 -1:255 1 0] [0x1 1 [18 16] 4.000000 ] (HELLO)
s 1.000000000 _19_ RTR  --- 0 WCETT 284 [0 0 0 0] ------- [19:255 -1:255 1 0] [0x1 1 [19 14] 4.000000 ] (HELLO)
s 1.000000000 _20_ RTR  --- 0 WCETT 284 [0 0 0 0] ------- [20:255 -1:255 1 0] [0x1 1 [20 16] 4.000000 ] (HELLO)
r 1.002788333 _6_ RTR  --- 0 WCETT 284 [0 ffffffff 9 800] ------- [9:255 -1:255 1 0] [0x1 1 [9 12] 4.000000 ] (HELLO)
r 1.002788333 _12_ RTR  --- 0 WCETT 284 [0 ffffffff 9 800] ------- [9:255 -1:255 1 0] [0x1 1 [9 12] 4.000000 ] (HELLO)
r 1.002788333 _13_ RTR  --- 0 WCETT 284 [0 ffffffff 10 800] ------- [16:255 -1:255 1 0] [0x1 1 [16 16] 4.000000 ] (HELLO)
r 1.002788333 _19_ RTR  --- 0 WCETT 284 [0 ffffffff 10 800] ------- [16:255 -1:255 1 0] [0x1 1 [16 16] 4.000000 ] (HELLO)
r 1.002788333 _18_ RTR  --- 0 WCETT 284 [0 ffffffff 10 800] ------- [16:255 -1:255 1 0] [0x1 1 [16 16] 4.000000 ] (HELLO)
r 1.002788471 _20_ RTR  --- 0 WCETT 284 [0 ffffffff 10 800] ------- [16:255 -1:255 1 0] [0x1 1 [16 16] 4.000000 ] (HELLO)
r 1.002788667 _3_ RTR  --- 0 WCETT 284 [0 ffffffff 9 800] ------- [9:255 -1:255 1 0] [0x1 1 [9 12] 4.000000 ] (HELLO)
r 1.002788667 _17_ RTR  --- 0 WCETT 284 [0 ffffffff 10 800] ------- [16:255 -1:255 1 0] [0x1 1 [16 16] 4.000000 ] (HELLO)
r 1.002788745 _14_ RTR  --- 0 WCETT 284 [0 ffffffff 10 800] ------- [16:255 -1:255 1 0] [0x1 1 [16 16] 4.000000 ] (HELLO)
r 1.005911387 _18_ RTR  --- 0 WCETT 284 [0 ffffffff 14 800] ------- [20:255 -1:255 1 0] [0x1 1 [20 16] 4.000000 ] (HELLO)
r 1.005911387 _13_ RTR  --- 0 WCETT 284 [0 ffffffff 14 800] ------- [20:255 -1:255 1 0] [0x1 1 [20 16] 4.000000 ] (HELLO)
r 1.005911387 _14_ RTR  --- 0 WCETT 284 [0 ffffffff 14 800] ------- [20:255 -1:255 1 0] [0x1 1 [20 16] 4.000000 ] (HELLO)
r 1.005911525 _16_ RTR  --- 0 WCETT 284 [0 ffffffff 14 800] ------- [20:255 -1:255 1 0] [0x1 1 [20 16] 4.000000 ] (HELLO)
r 1.005911525 _10_ RTR  --- 0 WCETT 284 [0 ffffffff 14 800] ------- [20:255 -1:255 1 0] [0x1 1 [20 16] 4.000000 ] (HELLO)
r 1.005911525 _11_ RTR  --- 0 WCETT 284 [0 ffffffff 14 800] ------- [20:255 -1:255 1 0] [0x1 1 [20 16] 4.000000 ] (HELLO)
r 1.005911525 _17_ RTR  --- 0 WCETT 284 [0 ffffffff 14 800] ------- [20:255 -1:255 1 0] [0x1 1 [20 16] 4.000000 ] (HELLO)
r 1.005911799 _7_ RTR  --- 0 WCETT 284 [0 ffffffff 14 800] ------- [20:255 -1:255 1 0] [0x1 1 [20 16] 4.000000 ] (HELLO)
r 1.005911799 _19_ RTR  --- 0 WCETT 284 [0 ffffffff 14 800] ------- [20:255 -1:255 1 0] [0x1 1 [20 16] 4.000000 ] (HELLO)
r 1.005911799 _8_ RTR  --- 0 WCETT 284 [0 ffffffff 14 800] ------- [20:255 -1:255 1 0] [0x1 1 [20 16] 4.000000 ] (HELLO)
r 1.008709721 _11_ RTR  --- 0 WCETT 284 [0 ffffffff e 800] ------- [14:255 -1:255 1 0] [0x1 1 [14 12] 4.000000 ] (HELLO)
r 1.008709721 _20_ RTR  --- 0 WCETT 284 [0 ffffffff e 800] ------- [14:255 -1:255 1 0] [0x1 1 [14 12] 4.000000 ] (HELLO)
r 1.008709721 _17_ RTR  --- 0 WCETT 284 [0 ffffffff e 800] ------- [14:255 -1:255 1 0] [0x1 1 [14 12] 4.000000 ] (HELLO)
r 1.008709859 _18_ RTR  --- 0 WCETT 284 [0 ffffffff e 800] ------- [14:255 -1:255 1 0] [0x1 1 [14 12] 4.000000 ] (HELLO)
r 1.008710054 _8_ RTR  --- 0 WCETT 284 [0 ffffffff e 800] ------- [14:255 -1:255 1 0] [0x1 1 [14 12] 4.000000 ] (HELLO)
r 1.008710054 _13_ RTR  --- 0 WCETT 284 [0 ffffffff e 800] ------- [14:255 -1:255 1 0] [0x1 1 [14 12] 4.000000 ] (HELLO)
r 1.008710133 _16_ RTR  --- 0 WCETT 284 [0 ffffffff e 800] ------- [14:255 -1:255 1 0] [0x1 1 [14 12] 4.000000 ] (HELLO)
r 1.011608054 _14_ RTR  --- 0 WCETT 284 [0 ffffffff 11 800] ------- [17:255 -1:255 1 0] [0x1 1 [17 12] 4.000000 ] (HELLO)
r 1.011608054 _18_ RTR  --- 0 WCETT 284 [0 ffffffff 11 800] ------- [17:255 -1:255 1 0] [0x1 1 [17 12] 4.000000 ] (HELLO)
r 1.011608192 _20_ RTR  --- 0 WCETT 284 [0 ffffffff 11 800] ------- [17:255 -1:255 1 0] [0x1 1 [17 12] 4.000000 ] (HELLO)
r 1.011608387 _11_ RTR  --- 0 WCETT 284 [0 ffffffff 11 800] ------- [17:255 -1:255 1 0] [0x1 1 [17 12] 4.000000 ] (HELLO)
r 1.011608387 _16_ RTR  --- 0 WCETT 284 [0 ffffffff 11 800] ------- [17:255 -1:255 1 0] [0x1 1 [17 12] 4.000000 ] (HELLO)
r 1.012997387 _0_ RTR  --- 0 WCETT 284 [0 ffffffff 3 800] ------- [3:255 -1:255 1 0] [0x1 1 [3 10] 4.000000 ] (HELLO)
r 1.012997387 _6_ RTR  --- 0 WCETT 284 [0 ffffffff 3 800] ------- [3:255 -1:255 1 0] [0x1 1 [3 10] 4.000000 ] (HELLO)
r 1.012997721 _4_ RTR  --- 0 WCETT 284 [0 ffffffff 3 800] ------- [3:255 -1:255 1 0] [0x1 1 [3 10] 4.000000 ] (HELLO)
r 1.012997799 _1_ RTR  --- 0 WCETT 284 [0 ffffffff 3 800] ------- [3:255 -1:255 1 0] [0x1 1 [3 10] 4.000000 ] (HELLO)
r 1.015776133 _4_ RTR  --- 0 WCETT 284 [0 ffffffff 1 800] ------- [1:255 -1:255 1 0] [0x1 1 [1 12] 4.000000 ] (HELLO)
r 1.015776466 _0_ RTR  --- 0 WCETT 284 [0 ffffffff 1 800] ------- [1:255 -1:255 1 0] [0x1 1 [1 12] 4.000000 ] (HELLO)
r 1.015776466 _7_ RTR  --- 0 WCETT 284 [0 ffffffff 1 800] ------- [1:255 -1:255 1 0] [0x1 1 [1 12] 4.000000 ] (HELLO)
r 1.015776466 _2_ RTR  --- 0 WCETT 284 [0 ffffffff 1 800] ------- [1:255 -1:255 1 0] [0x1 1 [1 12] 4.000000 ] (HELLO)
r 1.015776545 _3_ RTR  --- 0 WCETT 284 [0 ffffffff 1 800] ------- [1:255 -1:255 1 0] [0x1 1 [1 12] 4.000000 ] (HELLO)
r 1.015776545 _5_ RTR  --- 0 WCETT 284 [0 ffffffff 1 800] ------- [1:255 -1:255 1 0] [0x1 1 [1 12] 4.000000 ] (HELLO)
r 1.018614799 _5_ RTR  --- 0 WCETT 284 [0 ffffffff 2 800] ------- [2:255 -1:255 1 0] [0x1 1 [2 8] 4.000000 ] (HELLO)
r 1.018615133 _1_ RTR  --- 0 WCETT 284 [0 ffffffff 2 800] ------- [2:255 -1:255 1 0] [0x1 1 [2 8] 4.000000 ] (HELLO)
r 1.018615133 _8_ RTR  --- 0 WCETT 284 [0 ffffffff 2 800] ------- [2:255 -1:255 1 0] [0x1 1 [2 8] 4.000000 ] (HELLO)
r 1.019019623 _15_ RTR  --- 0 WCETT 284 [0 ffffffff c 800] ------- [12:255 -1:255 1 0] [0x1 1 [12 12] 4.000000 ] (HELLO)
r 1.019019762 _19_ RTR  --- 0 WCETT 284 [0 ffffffff c 800] ------- [12:255 -1:255 1 0] [0x1 1 [12 12] 4.000000 ] (HELLO)
r 1.021818095 _15_ RTR  --- 0 WCETT 284 [0 ffffffff 13 800] ------- [19:255 -1:255 1 0] [0x1 1 [19 14] 4.000000 ] (HELLO)
r 1.021818095 _16_ RTR  --- 0 WCETT 284 [0 ffffffff 13 800] ------- [19:255 -1:255 1 0] [0x1 1 [19 14] 4.000000 ] (HELLO)
r 1.021818233 _12_ RTR  --- 0 WCETT 284 [0 ffffffff 13 800] ------- [19:255 -1:255 1 0] [0x1 1 [19 14] 4.000000 ] (HELLO)
r 1.021818233 _13_ RTR  --- 0 WCETT 284 [0 ffffffff 13 800] ------- [19:255 -1:255 1 0] [0x1 1 [19 14] 4.000000 ] (HELLO)
r 1.021818428 _18_ RTR  --- 0 WCETT 284 [0 ffffffff 13 800] ------- [19:255 -1:255 1 0] [0x1 1 [19 14] 4.000000 ] (HELLO)
r 1.021818507 _9_ RTR  --- 0 WCETT 284 [0 ffffffff 13 800] ------- [19:255 -1:255 1 0] [0x1 1 [19 14] 4.000000 ] (HELLO)
r 1.021818507 _10_ RTR  --- 0 WCETT 284 [0 ffffffff 13 800] ------- [19:255 -1:255 1 0] [0x1 1 [19 14] 4.000000 ] (HELLO)
r 1.021818507 _20_ RTR  --- 0 WCETT 284 [0 ffffffff 13 800] ------- [19:255 -1:255 1 0] [0x1 1 [19 14] 4.000000 ] (HELLO)
r 1.024616762 _16_ RTR  --- 0 WCETT 284 [0 ffffffff 12 800] ------- [18:255 -1:255 1 0] [0x1 1 [18 16] 4.000000 ] (HELLO)
r 1.024616762 _20_ RTR  --- 0 WCETT 284 [0 ffffffff 12 800] ------- [18:255 -1:255 1 0] [0x1 1 [18 16] 4.000000 ] (HELLO)
r 1.024616762 _17_ RTR  --- 0 WCETT 284 [0 ffffffff 12 800] ------- [18:255 -1:255 1 0] [0x1 1 [18 16] 4.000000 ] (HELLO)
r 1.024616900 _13_ RTR  --- 0 WCETT 284 [0 ffffffff 12 800] ------- [18:255 -1:255 1 0] [0x1 1 [18 16] 4.000000 ] (HELLO)
r 1.024616900 _14_ RTR  --- 0 WCETT 284 [0 ffffffff 12 800] ------- [18:255 -1:255 1 0] [0x1 1 [18 16] 4.000000 ] (HELLO)
r 1.024617095 _19_ RTR  --- 0 WCETT 284 [0 ffffffff 12 800] ------- [18:255 -1:255 1 0] [0x1 1 [18 16] 4.000000 ] (HELLO)
r 1.024617174 _10_ RTR  --- 0 WCETT 284 [0 ffffffff 12 800] ------- [18:255 -1:255 1 0] [0x1 1 [18 16] 4.000000 ] (HELLO)
r 1.024617174 _11_ RTR  --- 0 WCETT 284 [0 ffffffff 12 800] ------- [18:255 -1:255 1 0] [0x1 1 [18 16] 4.000000 ] (HELLO)
r 1.027435233 _10_ RTR  --- 0 WCETT 284 [0 ffffffff d 800] ------- [13:255 -1:255 1 0] [0x1 1 [13 14] 4.000000 ] (HELLO)
r 1.027435233 _16_ RTR  --- 0 WCETT 284 [0 ffffffff d 800] ------- [13:255 -1:255 1 0] [0x1 1 [13 14] 4.000000 ] (HELLO)
r 1.027435507 _7_ RTR  --- 0 WCETT 284 [0 ffffffff a 800] ------- [10:255 -1:255 1 0] [0x1 1 [10 14] 4.000000 ] (HELLO)
r 1.027435507 _13_ RTR  --- 0 WCETT 284 [0 ffffffff a 800] ------- [10:255 -1:255 1 0] [0x1 1 [10 14] 4.000000 ] (HELLO)
r 1.030558450 _12_ RTR  --- 0 WCETT 284 [0 ffffffff f 800] ------- [15:255 -1:255 1 0] [0x1 1 [15 10] 4.000000 ] (HELLO)
r 1.030558450 _19_ RTR  --- 0 WCETT 284 [0 ffffffff f 800] ------- [15:255 -1:255 1 0] [0x1 1 [15 10] 4.000000 ] (HELLO)
r 1.030558783 _9_ RTR  --- 0 WCETT 284 [0 ffffffff f 800] ------- [15:255 -1:255 1 0] [0x1 1 [15 10] 4.000000 ] (HELLO)
r 1.030558783 _16_ RTR  --- 0 WCETT 284 [0 ffffffff f 800] ------- [15:255 -1:255 1 0] [0x1 1 [15 10] 4.000000 ] (HELLO)
r 1.030698450 _2_ RTR  --- 0 WCETT 284 [0 ffffffff 5 800] ------- [5:255 -1:255 1 0] [0x1 1 [5 12] 4.000000 ] (HELLO)
r 1.033881195 _4_ RTR  --- 0 WCETT 284 [0 ffffffff 7 800] ------- [7:255 -1:255 1 0] [0x1 1 [7 12] 4.000000 ] (HELLO)
r 1.033881195 _10_ RTR  --- 0 WCETT 284 [0 ffffffff 7 800] ------- [7:255 -1:255 1 0] [0x1 1 [7 12] 4.000000 ] (HELLO)
r 1.033881528 _1_ RTR  --- 0 WCETT 284 [0 ffffffff 7 800] ------- [7:255 -1:255 1 0] [0x1 1 [7 12] 4.000000 ] (HELLO)
r 1.033881528 _6_ RTR  --- 0 WCETT 284 [0 ffffffff 7 800] ------- [7:255 -1:255 1 0] [0x1 1 [7 12] 4.000000 ] (HELLO)
r 1.033881528 _13_ RTR  --- 0 WCETT 284 [0 ffffffff 7 800] ------- [7:255 -1:255 1 0] [0x1 1 [7 12] 4.000000 ] (HELLO)
r 1.033881528 _8_ RTR  --- 0 WCETT 284 [0 ffffffff 7 800] ------- [7:255 -1:255 1 0] [0x1 1 [7 12] 4.000000 ] (HELLO)
r 1.033881607 _9_ RTR  --- 0 WCETT 284 [0 ffffffff 7 800] ------- [7:255 -1:255 1 0] [0x1 1 [7 12] 4.000000 ] (HELLO)
r 1.033881607 _3_ RTR  --- 0 WCETT 284 [0 ffffffff 7 800] ------- [7:255 -1:255 1 0] [0x1 1 [7 12] 4.000000 ] (HELLO)
r 1.033881607 _20_ RTR  --- 0 WCETT 284 [0 ffffffff 7 800] ------- [7:255 -1:255 1 0] [0x1 1 [7 12] 4.000000 ] (HELLO)
r 1.033881607 _5_ RTR  --- 0 WCETT 284 [0 ffffffff 7 800] ------- [7:255 -1:255 1 0] [0x1 1 [7 12] 4.000000 ] (HELLO)
r 1.033881607 _11_ RTR  --- 0 WCETT 284 [0 ffffffff 7 800] ------- [7:255 -1:255 1 0] [0x1 1 [7 12] 4.000000 ] (HELLO)
r 1.036639862 _3_ RTR  --- 0 WCETT 284 [0 ffffffff 6 800] ------- [6:255 -1:255 1 0] [0x1 1 [6 12] 4.000000 ] (HELLO)
r 1.036639862 _9_ RTR  --- 0 WCETT 284 [0 ffffffff 6 800] ------- [6:255 -1:255 1 0] [0x1 1 [6 12] 4.000000 ] (HELLO)
r 1.036640195 _0_ RTR  --- 0 WCETT 284 [0 ffffffff 6 800] ------- [6:255 -1:255 1 0] [0x1 1 [6 12] 4.000000 ] (HELLO)
r 1.036640195 _12_ RTR  --- 0 WCETT 284 [0 ffffffff 6 800] ------- [6:255 -1:255 1 0] [0x1 1 [6 12] 4.000000 ] (HELLO)
r 1.036640195 _7_ RTR  --- 0 WCETT 284 [0 ffffffff 6 800] ------- [6:255 -1:255 1 0] [0x1 1 [6 12] 4.000000 ] (HELLO)
r 1.036640274 _4_ RTR  --- 0 WCETT 284 [0 ffffffff 6 800] ------- [6:255 -1:255 1 0] [0x1 1 [6 12] 4.000000 ] (HELLO)
r 1.036640274 _10_ RTR  --- 0 WCETT 284 [0 ffffffff 6 800] ------- [6:255 -1:255 1 0] [0x1 1 [6 12] 4.000000 ] (HELLO)
r 1.039598607 _1_ RTR  --- 0 WCETT 284 [0 ffffffff 4 800] ------- [4:255 -1:255 1 0] [0x1 1 [4 12] 4.000000 ] (HELLO)
r 1.039598607 _7_ RTR  --- 0 WCETT 284 [0 ffffffff 4 800] ------- [4:255 -1:255 1 0] [0x1 1 [4 12] 4.000000 ] (HELLO)
r 1.039598940 _3_ RTR  --- 0 WCETT 284 [0 ffffffff 4 800] ------- [4:255 -1:255 1 0] [0x1 1 [4 12] 4.000000 ] (HELLO)
r 1.039598940 _10_ RTR  --- 0 WCETT 284 [0 ffffffff 4 800] ------- [4:255 -1:255 1 0] [0x1 1 [4 12] 4.000000 ] (HELLO)
r 1.039598940 _5_ RTR  --- 0 WCETT 284 [0 ffffffff 4 800] ------- [4:255 -1:255 1 0] [0x1 1 [4 12] 4.000000 ] (HELLO)
r 1.039599019 _6_ RTR  --- 0 WCETT 284 [0 ffffffff 4 800] ------- [4:255 -1:255 1 0] [0x1 1 [4 12] 4.000000 ] (HELLO)
r 1.039599019 _0_ RTR  --- 0 WCETT 284 [0 ffffffff 4 800] ------- [4:255 -1:255 1 0] [0x1 1 [4 12] 4.000000 ] (HELLO)
r 1.039599019 _2_ RTR  --- 0 WCETT 284 [0 ffffffff 4 800] ------- [4:255 -1:255 1 0] [0x1 1 [4 12] 4.000000 ] (HELLO)
r 1.039599019 _8_ RTR  --- 0 WCETT 284 [0 ffffffff 4 800] ------- [4:255 -1:255 1 0] [0x1 1 [4 12] 4.000000 ] (HELLO)