Sconfig 0.00000 tap: on snoop: rts? on errs? on
Sconfig 0.00000 salvage: on !bd replies? on
Sconfig 0.00000 grat error: on grat reply: on
Sconfig 0.00000 $reply for props: on ring 0 search: on
Sconfig 0.00000 using MOBICACHE
s 15.000000000 _0_ AGT  --- 0 cbr 512 [0 0 0 0] ------- [0:0 18:0 32 0] [0] 0 0
r 15.000000000 _0_ RTR  --- 0 cbr 512 [0 0 0 0] ------- [0:0 18:0 32 0] [0] 0 0
s 15.007402038 _0_ RTR  --- 1 DSR 32 [0 0 0 0] ------- [0:255 18:255 32 0] 1 [1 1] [0 1 0 0->0] [0 0 0 0->0]
r 15.008574371 _3_ RTR  --- 1 DSR 32 [0 ffffffff 0 800] ------- [0:255 18:255 32 0] 1 [1 1] [0 1 0 0->0] [0 0 0 0->0]
r 15.008574371 _29_ RTR  --- 1 DSR 32 [0 ffffffff 0 800] ------- [0:255 18:255 32 0] 1 [1 1] [0 1 0 0->0] [0 0 0 0->0]
r 15.008574510 _27_ RTR  --- 1 DSR 32 [0 ffffffff 0 800] ------- [0:255 18:255 32 0] 1 [1 1] [0 1 0 0->0] [0 0 0 0->0]
r 15.008574705 _6_ RTR  --- 1 DSR 32 [0 ffffffff 0 800] ------- [0:255 18:255 32 0] 1 [1 1] [0 1 0 0->0] [0 0 0 0->0]
r 15.008574705 _1_ RTR  --- 1 DSR 32 [0 ffffffff 0 800] ------- [0:255 18:255 32 0] 1 [1 1] [0 1 0 0->0] [0 0 0 0->0]
r 15.008574783 _25_ RTR  --- 1 DSR 32 [0 ffffffff 0 800] ------- [0:255 18:255 32 0] 1 [1 1] [0 1 0 0->0] [0 0 0 0->0]
r 15.008574783 _4_ RTR  --- 1 DSR 32 [0 ffffffff 0 800] ------- [0:255 18:255 32 0] 1 [1 1] [0 1 0 0->0] [0 0 0 0->0]
s 15.034300949 _0_ RTR  --- 2 DSR 32 [0 0 0 0] ------- [0:255 18:255 32 0] 1 [1 2] [0 2 0 0->16] [0 0 0 0->0]
r 15.035673283 _3_ RTR  --- 2 DSR 32 [0 ffffffff 0 800] ------- [0:255 18:255 32 0] 1 [1 2] [0 2 0 0->16] [0 0 0 0->0]
r 15.035673283 _29_ RTR  --- 2 DSR 32 [0 ffffffff 0 800] ------- [0:255 18:255 32 0] 1 [1 2] [0 2 0 0->16] [0 0 0 0->0]
r 15.035673421 _27_ RTR  --- 2 DSR 32 [0 ffffffff 0 800] ------- [0:255 18:255 32 0] 1 [1 2] [0 2 0 0->16] [0 0 0 0->0]
r 15.035673616 _6_ RTR  --- 2 DSR 32 [0 ffffffff 0 800] ------- [0:255 18:255 32 0] 1 [1 2] [0 2 0 0->16] [0 0 0 0->0]
r 15.035673616 _1_ RTR  --- 2 DSR 32 [0 ffffffff 0 800] ------- [0:255 18:255 32 0] 1 [1 2] [0 2 0 0->16] [0 0 0 0->0]
r 15.035673695 _25_ RTR  --- 2 DSR 32 [0 ffffffff 0 800] ------- [0:255 18:255 32 0] 1 [1 2] [0 2 0 0->16] [0 0 0 0->0]
r 15.035673695 _4_ RTR  --- 2 DSR 32 [0 ffffffff 0 800] ------- [0:255 18:255 32 0] 1 [1 2] [0 2 0 0->16] [0 0 0 0->0]
f 15.036593573 _6_ RTR  --- 2 DSR 48 [0 ffffffff 0 800] ------- [0:255 18:255 32 0] 2 [1 2] [0 2 0 0->16] [0 0 0 0->0]
r 15.037593906 _3_ RTR  --- 2 DSR 48 [0 ffffffff 6 800] ------- [0:255 18:255 32 0] 2 [1 2] [0 2 0 0->16] [0 0 0 0->0]
r 15.037593906 _9_ RTR  --- 2 DSR 48 [0 ffffffff 6 800] ------- [0:255 18:255 32 0] 2 [1 2] [0 2 0 0->16] [0 0 0 0->0]
r 15.037593906 _25_ RTR  --- 2 DSR 48 [0 ffffffff 6 800] ------- [0:255 18:255 32 0] 2 [1 2] [0 2 0 0->16] [0 0 0 0->0]
r 15.037594044 _23_ RTR  --- 2 DSR 48 [0 ffffffff 6 800] ------- [0:255 18:255 32 0] 2 [1 2] [0 2 0 0->16] [0 0 0 0->0]
r 15.037594044 _27_ RTR  --- 2 DSR 48 [0 ffffffff 6 800] ------- [0:255 18:255 32 0] 2 [1 2] [0 2 0 0->16] [0 0 0 0->0]
r 15.037594240 _0_ RTR  --- 2 DSR 48 [0 ffffffff 6 800] ------- [0:255 18:255 32 0] 2 [1 2] [0 2 0 0->16] [0 0 0 0->0]
r 15.037594240 _12_ RTR  --- 2 DSR 48 [0 ffffffff 6 800] ------- [0:255 18:255 32 0] 2 [1 2] [0 2 0 0->16] [0 0 0 0->0]
r 15.037594240 _7_ RTR  --- 2 DSR 48 [0 ffffffff 6 800] ------- [0:255 18:255 32 0] 2 [1 2] [0 2 0 0->16] [0 0 0 0->0]
r 15.037594318 _21_ RTR  --- 2 DSR 48 [0 ffffffff 6 800] ------- [0:255 18:255 32 0] 2 [1 2] [0 2 0 0->16] [0 0 0 0->0]
r 15.037594318 _29_ RTR  --- 2 DSR 48 [0 ffffffff 6 800] ------- [0:255 18:255 32 0] 2 [1 2] [0 2 0 0->16] [0 0 0 0->0]
r 15.037594318 _4_ RTR  --- 2 DSR 48 [0 ffffffff 6 800] ------- [0:255 18:255 32 0] 2 [1 2] [0 2 0 0->16] [0 0 0 0->0]
r 15.037594318 _10_ RTR  --- 2 DSR 48 [0 ffffffff 6 800] ------- [0:255 18:255 32 0] 2 [1 2] [0 2 0 0->16] [0 0 0 0->0]
f 15.038702144 _27_ RTR  --- 2 DSR 48 [0 ffffffff 0 800] ------- [0:255 18:255 32 0] 2 [1 2] [0 2 0 0->16] [0 0 0 0->0]
f 15.038776621 _25_ RTR  --- 2 DSR 48 [0 ffffffff 0 800] ------- [0:255 18:255 32 0] 2 [1 2] [0 2 0 0->16] [0 0 0 0->0]
f 15.039174184 _21_ RTR  --- 2 DSR 68 [0 ffffffff 6 800] ------- [0:255 18:255 32 0] 3 [1 2] [0 2 0 0->16] [0 0 0 0->0]
f 15.039241963 _3_ RTR  --- 2 DSR 48 [0 ffffffff 0 800] ------- [0:255 18:255 32 0] 2 [1 2] [0 2 0 0->16] [0 0 0 0->0]
r 15.039622478 _25_ RTR  --- 2 DSR 48 [0 ffffffff 1b 800] ------- [0:255 18:255 32 0] 2 [1 2] [0 2 0 0->16] [0 0 0 0->0]
r 15.039622478 _3_ RTR  --- 2 DSR 48 [0 ffffffff 1b 800] ------- [0:255 18:255 32 0] 2 [1 2] [0 2 0 0->16] [0 0 0 0->0]
r 15.039622478 _29_ RTR  --- 2 DSR 48 [0 ffffffff 1b 800] ------- [0:255 18:255 32 0] 2 [1 2] [0 2 0 0->16] [0 0 0 0->0]
r 15.039622478 _4_ RTR  --- 2 DSR 48 [0 ffffffff 1b 800] ------- [0:255 18:255 32 0] 2 [1 2] [0 2 0 0->16] [0 0 0 0->0]
r 15.039622616 _6_ RTR  --- 2 DSR 48 [0 ffffffff 1b 800] ------- [0:255 18:255 32 0] 2 [1 2] [0 2 0 0->16] [0 0 0 0->0]
r 15.039622616 _0_ RTR  --- 2 DSR 48 [0 ffffffff 1b 800] ------- [0:255 18:255 32 0] 2 [1 2] [0 2 0 0->16] [0 0 0 0->0]
r 15.039622616 _1_ RTR  --- 2 DSR 48 [0 ffffffff 1b 800] ------- [0:255 18:255 32 0] 2 [1 2] [0 2 0 0->16] [0 0 0 0->0]
r 15.039622616 _7_ RTR  --- 2 DSR 48 [0 ffffffff 1b 800] ------- [0:255 18:255 32 0] 2 [1 2] [0 2 0 0->16] [0 0 0 0->0]
r 15.039622811 _23_ RTR  --- 2 DSR 48 [0 ffffffff 1b 800] ------- [0:255 18:255 32 0] 2 [1 2] [0 2 0 0->16] [0 0 0 0->0]
r 15.039622811 _26_ RTR  --- 2 DSR 48 [0 ffffffff 1b 800] ------- [0:255 18:255 32 0] 2 [1 2] [0 2 0 0->16] [0 0 0 0->0]
r 15.039622890 _9_ RTR  --- 2 DSR 48 [0 ffffffff 1b 800] ------- [0:255 18:255 32 0] 2 [1 2] [0 2 0 0->16] [0 0 0 0->0]
r 15.039622890 _10_ RTR  --- 2 DSR 48 [0 ffffffff 1b 800] ------- [0:255 18:255 32 0] 2 [1 2] [0 2 0 0->16] [0 0 0 0->0]
r 15.039622890 _24_ RTR  --- 2 DSR 48 [0 ffffffff 1b 800] ------- [0:255 18:255 32 0] 2 [1 2] [0 2 0 0->16] [0 0 0 0->0]
r 15.039622890 _28_ RTR  --- 2 DSR 48 [0 ffffffff 1b 800] ------- [0:255 18:255 32 0] 2 [1 2] [0 2 0 0->16] [0 0 0 0->0]
f 15.039758654 _1_ RTR  --- 2 DSR 48 [0 ffffffff 0 800] ------- [0:255 18:255 32 0] 2 [1 2] [0 2 0 0->16] [0 0 0 0->0]
f 15.039800123 _9_ RTR  --- 2 DSR 68 [0 ffffffff 6 800] ------- [0:255 18:255 32 0] 3 [1 2] [0 2 0 0->16] [0 0 0 0->0]
r 15.040652811 _23_ RTR  --- 2 DSR 48 [0 ffffffff 19 800] ------- [0:255 18:255 32 0] 2 [1 2] [0 2 0 0->16] [0 0 0 0->0]
r 15.040652811 _7_ RTR  --- 2 DSR 48 [0 ffffffff 19 800] ------- [0:255 18:255 32 0] 2 [1 2] [0 2 0 0->16] [0 0 0 0->0]
r 15.040652811 _0_ RTR  --- 2 DSR 48 [0 ffffffff 3 800] ------- [0:255 18:255 32 0] 2 [1 2] [0 2 0 0->16] [0 0 0 0->0]
r 15.040652949 _3_ RTR  --- 2 DSR 48 [0 ffffffff 19 800] ------- [0:255 18:255 32 0] 2 [1 2] [0 2 0 0->16] [0 0 0 0->0]
r 15.040652949 _10_ RTR  --- 2 DSR 48 [0 ffffffff 19 800] ------- [0:255 18:255 32 0] 2 [1 2] [0 2 0 0->16] [0 0 0 0->0]
r 15.040652949 _25_ RTR  --- 2 DSR 48 [0 ffffffff 3 800] ------- [0:255 18:255 32 0] 2 [1 2] [0 2 0 0->16] [0 0 0 0->0]
f 15.041131349 _10_ RTR  --- 2 DSR 68 [0 ffffffff 6 800] ------- [0:255 18:255 32 0] 3 [1 2] [0 2 0 0->16] [0 0 0 0->0]
f 15.041324221 _4_ RTR  --- 2 DSR 48 [0 ffffffff 0 800] ------- [0:255 18:255 32 0] 2 [1 2] [0 2 0 0->16] [0 0 0 0->0]
f 15.041510517 _7_ RTR  --- 2 DSR 68 [0 ffffffff 6 800] ------- [0:255 18:255 32 0] 3 [1 2] [0 2 0 0->16] [0 0 0 0->0]
f 15.042015363 _28_ RTR  --- 2 DSR 68 [0 ffffffff 1b 800] ------- [0:255 18:255 32 0] 3 [1 2] [0 2 0 0->16] [0 0 0 0->0]
r 15.042027865 _19_ RTR  --- 2 DSR 68 [0 ffffffff 15 800] ------- [0:255 18:255 32 0] 3 [1 2] [0 2 0 0->16] [0 0 0 0->0]
r 15.042027865 _12_ RTR  --- 2 DSR 68 [0 ffffffff 15 800] ------- [0:255 18:255 32 0] 3 [1 2] [0 2 0 0->16] [0 0 0 0->0]
r 15.042027865 _23_ RTR  --- 2 DSR 68 [0 ffffffff 15 800] ------- [0:255 18:255 32 0] 3 [1 2] [0 2 0 0->16] [0 0 0 0->0]
r 15.042027865 _13_ RTR  --- 2 DSR 68 [0 ffffffff 15 800] ------- [0:255 18:255 32 0] 3 [1 2] [0 2 0 0->16] [0 0 0 0->0]
r 15.042028003 _15_ RTR  --- 2 DSR 68 [0 ffffffff 15 800] ------- [0:255 18:255 32 0] 3 [1 2] [0 2 0 0->16] [0 0 0 0->0]
r 15.042028003 _9_ RTR  --- 2 DSR 68 [0 ffffffff 15 800] ------- [0:255 18:255 32 0] 3 [1 2] [0 2 0 0->16] [0 0 0 0->0]
r 15.042028003 _10_ RTR  --- 2 DSR 68 [0 ffffffff 15 800] ------- [0:255 18:255 32 0] 3 [1 2] [0 2 0 0->16] [0 0 0 0->0]
r 15.042028003 _16_ RTR  --- 2 DSR 68 [0 ffffffff 15 800] ------- [0:255 18:255 32 0] 3 [1 2] [0 2 0 0->16] [0 0 0 0->0]
r 15.042028198 _25_ RTR  --- 2 DSR 68 [0 ffffffff 15 800] ------- [0:255 18:255 32 0] 3 [1 2] [0 2 0 0->16] [0 0 0 0->0]
r 15.042028198 _20_ RTR  --- 2 DSR 68 [0 ffffffff 15 800] ------- [0:255 18:255 32 0] 3 [1 2] [0 2 0 0->16] [0 0 0 0->0]
r 15.042028277 _6_ RTR  --- 2 DSR 68 [0 ffffffff 15 800] ------- [0:255 18:255 32 0] 3 [1 2] [0 2 0 0->16] [0 0 0 0->0]
r 15.042028277 _7_ RTR  --- 2 DSR 68 [0 ffffffff 15 800] ------- [0:255 18:255 32 0] 3 [1 2] [0 2 0 0->16] [0 0 0 0->0]
r 15.042028277 _18_ RTR  --- 2 DSR 68 [0 ffffffff 15 800] ------- [0:255 18:255 32 0] 3 [1 2] [0 2 0 0->16] [0 0 0 0->0]
r 15.042028277 _22_ RTR  --- 2 DSR 68 [0 ffffffff 15 800] ------- [0:255 18:255 32 0] 3 [1 2] [0 2 0 0->16] [0 0 0 0->0]
f 15.042271614 _29_ RTR  --- 2 DSR 48 [0 ffffffff 0 800] ------- [0:255 18:255 32 0] 2 [1 2] [0 2 0 0->16] [0 0 0 0->0]
f 15.042308071 _12_ RTR  --- 2 DSR 68 [0 ffffffff 6 800] ------- [0:255 18:255 32 0] 3 [1 2] [0 2 0 0->16] [0 0 0 0->0]
f 15.043032502 _23_ RTR  --- 2 DSR 68 [0 ffffffff 6 800] ------- [0:255 18:255 32 0] 3 [1 2] [0 2 0 0->16] [0 0 0 0->0]
r 15.043098610 _4_ RTR  --- 2 DSR 68 [0 ffffffff 7 800] ------- [0:255 18:255 32 0] 3 [1 2] [0 2 0 0->16] [0 0 0 0->0]
r 15.043098610 _25_ RTR  --- 2 DSR 68 [0 ffffffff 7 800] ------- [0:255 18:255 32 0] 3 [1 2] [0 2 0 0->16] [0 0 0 0->0]
r 15.043098610 _10_ RTR  --- 2 DSR 68 [0 ffffffff 7 800] ------- [0:255 18:255 32 0] 3 [1 2] [0 2 0 0->16] [0 0 0 0->0]
r 15.043098610 _24_ RTR  --- 2 DSR 68 [0 ffffffff 7 800] ------- [0:255 18:255 32 0] 3 [1 2] [0 2 0 0->16] [0 0 0 0->0]
r 15.043098748 _27_ RTR  --- 2 DSR 68 [0 ffffffff 7 800] ------- [0:255 18:255 32 0] 3 [1 2] [0 2 0 0->16] [0 0 0 0->0]
r 15.043098748 _23_ RTR  --- 2 DSR 68 [0 ffffffff 7 800] ------- [0:255 18:255 32 0] 3 [1 2] [0 2 0 0->16] [0 0 0 0->0]
r 15.043098748 _22_ RTR  --- 2 DSR 68 [0 ffffffff 7 800] ------- [0:255 18:255 32 0] 3 [1 2] [0 2 0 0->16] [0 0 0 0->0]
r 15.043098748 _26_ RTR  --- 2 DSR 68 [0 ffffffff 7 800] ------- [0:255 18:255 32 0] 3 [1 2] [0 2 0 0->16] [0 0 0 0->0]
r 15.043098944 _1_ RTR  --- 2 DSR 68 [0 ffffffff 7 800] ------- [0:255 18:255 32 0] 3 [1 2] [0 2 0 0->16] [0 0 0 0->0]
r 15.043098944 _6_ RTR  --- 2 DSR 68 [0 ffffffff 7 800] ------- [0:255 18:255 32 0] 3 [1 2] [0 2 0 0->16] [0 0 0 0->0]
r 15.043098944 _13_ RTR  --- 2 DSR 68 [0 ffffffff 7 800] ------- [0:255 18:255 32 0] 3 [1 2] [0 2 0 0->16] [0 0 0 0->0]
r 15.043098944 _8_ RTR  --- 2 DSR 68 [0 ffffffff 7 800] ------- [0:255 18:255 32 0] 3 [1 2] [0 2 0 0->16] [0 0 0 0->0]
r 15.043099022 _29_ RTR  --- 2 DSR 68 [0 ffffffff 7 800] ------- [0:255 18:255 32 0] 3 [1 2] [0 2 0 0->16] [0 0 0 0->0]
r 15.043099022 _21_ RTR  --- 2 DSR 68 [0 ffffffff 7 800] ------- [0:255 18:255 32 0] 3 [1 2] [0 2 0 0->16] [0 0 0 0->0]
r 15.043099022 _9_ RTR  --- 2 DSR 68 [0 ffffffff 7 800] ------- [0:255 18:255 32 0] 3 [1 2] [0 2 0 0->16] [0 0 0 0->0]
r 15.043099022 _3_ RTR  --- 2 DSR 68 [0 ffffffff 7 800] ------- [0:255 18:255 32 0] 3 [1 2] [0 2 0 0->16] [0 0 0 0->0]
r 15.043099022 _20_ RTR  --- 2 DSR 68 [0 ffffffff 7 800] ------- [0:255 18:255 32 0] 3 [1 2] [0 2 0 0->16] [0 0 0 0->0]
r 15.043099022 _28_ RTR  --- 2 DSR 68 [0 ffffffff 7 800] ------- [0:255 18:255 32 0] 3 [1 2] [0 2 0 0->16] [0 0 0 0->0]
r 15.043099022 _5_ RTR  --- 2 DSR 68 [0 ffffffff 7 800] ------- [0:255 18:255 32 0] 3 [1 2] [0 2 0 0->16] [0 0 0 0->0]
r 15.043099022 _11_ RTR  --- 2 DSR 68 [0 ffffffff 7 800] ------- [0:255 18:255 32 0] 3 [1 2] [0 2 0 0->16] [0 0 0 0->0]
f 15.043280011 _26_ RTR  --- 2 DSR 68 [0 ffffffff 1b 800] ------- [0:255 18:255 32 0] 3 [1 2] [0 2 0 0->16] [0 0 0 0->0]
f 15.043933419 _15_ RTR  --- 2 DSR 92 [0 ffffffff 15 800] ------- [0:255 18:255 32 0] 4 [1 2] [0 2 0 0->16] [0 0 0 0->0]
f 15.043992452 _11_ RTR  --- 2 DSR 92 [0 ffffffff 7 800] ------- [0:255 18:255 32 0] 4 [1 2] [0 2 0 0->16] [0 0 0 0->0]
r 15.044048944 _1_ RTR  --- 2 DSR 48 [0 ffffffff 4 800] ------- [0:255 18:255 32 0] 2 [1 2] [0 2 0 0->16] [0 0 0 0->0]
r 15.044048944 _27_ RTR  --- 2 DSR 48 [0 ffffffff 4 800] ------- [0:255 18:255 32 0] 2 [1 2] [0 2 0 0->16] [0 0 0 0->0]
r 15.044048944 _7_ RTR  --- 2 DSR 48 [0 ffffffff 4 800] ------- [0:255 18:255 32 0] 2 [1 2] [0 2 0 0->16] [0 0 0 0->0]
r 15.044048944 _26_ RTR  --- 2 DSR 48 [0 ffffffff 4 800] ------- [0:255 18:255 32 0] 2 [1 2] [0 2 0 0->16] [0 0 0 0->0]
r 15.044049082 _29_ RTR  --- 2 DSR 48 [0 ffffffff 4 800] ------- [0:255 18:255 32 0] 2 [1 2] [0 2 0 0->16] [0 0 0 0->0]
r 15.044049082 _25_ RTR  --- 2 DSR 48 [0 ffffffff 4 800] ------- [0:255 18:255 32 0] 2 [1 2] [0 2 0 0->16] [0 0 0 0->0]
r 15.044049082 _24_ RTR  --- 2 DSR 48 [0 ffffffff 4 800] ------- [0:255 18:255 32 0] 2 [1 2] [0 2 0 0->16] [0 0 0 0->0]
r 15.044049082 _28_ RTR  --- 2 DSR 48 [0 ffffffff 4 800] ------- [0:255 18:255 32 0] 2 [1 2] [0 2 0 0->16] [0 0 0 0->0]
r 15.044049277 _3_ RTR  --- 2 DSR 48 [0 ffffffff 4 800] ------- [0:255 18:255 32 0] 2 [1 2] [0 2 0 0->16] [0 0 0 0->0]
r 15.044049277 _10_ RTR  --- 2 DSR 48 [0 ffffffff 4 800] ------- [0:255 18:255 32 0] 2 [1 2] [0 2 0 0->16] [0 0 0 0->0]
r 15.044049277 _5_ RTR  --- 2 DSR 48 [0 ffffffff 4 800] ------- [0:255 18:255 32 0] 2 [1 2] [0 2 0 0->16] [0 0 0 0->0]
r 15.044049356 _23_ RTR  --- 2 DSR 48 [0 ffffffff 4 800] ------- [0:255 18:255 32 0] 2 [1 2] [0 2 0 0->16] [0 0 0 0->0]
r 15.044049356 _6_ RTR  --- 2 DSR 48 [0 ffffffff 4 800] ------- [0:255 18:255 32 0] 2 [1 2] [0 2 0 0->16] [0 0 0 0->0]
r 15.044049356 _0_ RTR  --- 2 DSR 48 [0 ffffffff 4 800] ------- [0:255 18:255 32 0] 2 [1 2] [0 2 0 0->16] [0 0 0 0->0]
r 15.044049356 _22_ RTR  --- 2 DSR 48 [0 ffffffff 4 800] ------- [0:255 18:255 32 0] 2 [1 2] [0 2 0 0->16] [0 0 0 0->0]
r 15.044049356 _2_ RTR  --- 2 DSR 48 [0 ffffffff 4 800] ------- [0:255 18:255 32 0] 2 [1 2] [0 2 0 0->16] [0 0 0 0->0]
r 15.044049356 _8_ RTR  --- 2 DSR 48 [0 ffffffff 4 800] ------- [0:255 18:255 32 0] 2 [1 2] [0 2 0 0->16] [0 0 0 0->0]
f 15.044752923 _24_ RTR  --- 2 DSR 68 [0 ffffffff 1b 800] ------- [0:255 18:255 32 0] 3 [1 2] [0 2 0 0->16] [0 0 0 0->0]
f 15.045137675 _13_ RTR  --- 2 DSR 92 [0 ffffffff 15 800] ------- [0:255 18:255 32 0] 4 [1 2] [0 2 0 0->16] [0 0 0 0->0]
r 15.045139689 _21_ RTR  --- 2 DSR 68 [0 ffffffff 17 800] ------- [0:255 18:255 32 0] 3 [1 2] [0 2 0 0->16] [0 0 0 0->0]
r 15.045139689 _9_ RTR  --- 2 DSR 68 [0 ffffffff 17 800] ------- [0:255 18:255 32 0] 3 [1 2] [0 2 0 0->16] [0 0 0 0->0]
r 15.045139689 _25_ RTR  --- 2 DSR 68 [0 ffffffff 17 800] ------- [0:255 18:255 32 0] 3 [1 2] [0 2 0 0->16] [0 0 0 0->0]
r 15.045139689 _10_ RTR  --- 2 DSR 68 [0 ffffffff 17 800] ------- [0:255 18:255 32 0] 3 [1 2] [0 2 0 0->16] [0 0 0 0->0]
r 15.045139827 _12_ RTR  --- 2 DSR 68 [0 ffffffff 17 800] ------- [0:255 18:255 32 0] 3 [1 2] [0 2 0 0->16] [0 0 0 0->0]
r 15.045139827 _6_ RTR  --- 2 DSR 68 [0 ffffffff 17 800] ------- [0:255 18:255 32 0] 3 [1 2] [0 2 0 0->16] [0 0 0 0->0]
r 15.045139827 _7_ RTR  --- 2 DSR 68 [0 ffffffff 17 800] ------- [0:255 18:255 32 0] 3 [1 2] [0 2 0 0->16] [0 0 0 0->0]
r 15.045139827 _13_ RTR  --- 2 DSR 68 [0 ffffffff 17 800] ------- [0:255 18:255 32 0] 3 [1 2] [0 2 0 0->16] [0 0 0 0->0]
r 15.045140022 _19_ RTR  --- 2 DSR 68 [0 ffffffff 17 800] ------- [0:255 18:255 32 0] 3 [1 2] [0 2 0 0->16] [0 0 0 0->0]
r 15.045140022 _27_ RTR  --- 2 DSR 68 [0 ffffffff 17 800] ------- [0:255 18:255 32 0] 3 [1 2] [0 2 0 0->16] [0 0 0 0->0]
r 15.045140022 _22_ RTR  --- 2 DSR 68 [0 ffffffff 17 800] ------- [0:255 18:255 32 0] 3 [1 2] [0 2 0 0->16] [0 0 0 0->0]
r 15.045140101 _15_ RTR  --- 2 DSR 68 [0 ffffffff 17 800] ------- [0:255 18:255 32 0] 3 [1 2] [0 2 0 0->16] [0 0 0 0->0]
r 15.045140101 _3_ RTR  --- 2 DSR 68 [0 ffffffff 17 800] ------- [0:255 18:255 32 0] 3 [1 2] [0 2 0 0->16] [0 0 0 0->0]
r 15.045140101 _4_ RTR  --- 2 DSR 68 [0 ffffffff 17 800] ------- [0:255 18:255 32 0] 3 [1 2] [0 2 0 0->16] [0 0 0 0->0]
r 15.045140101 _16_ RTR  --- 2 DSR 68 [0 ffffffff 17 800] ------- [0:255 18:255 32 0] 3 [1 2] [0 2 0 0->16] [0 0 0 0->0]
r 15.045140101 _20_ RTR  --- 2 DSR 68 [0 ffffffff 17 800] ------- [0:255 18:255 32 0] 3 [1 2] [0 2 0 0->16] [0 0 0 0->0]
r 15.045140101 _24_ RTR  --- 2 DSR 68 [0 ffffffff 17 800] ------- [0:255 18:255 32 0] 3 [1 2] [0 2 0 0->16] [0 0 0 0->0]
f 15.045941997 _22_ RTR  --- 2 DSR 92 [0 ffffffff 15 800] ------- [0:255 18:255 32 0] 4 [1 2] [0 2 0 0->16] [0 0 0 0->0]
r 15.046330022 _7_ RTR  --- 2 DSR 68 [0 ffffffff a 800] ------- [0:255 18:255 32 0] 3 [1 2] [0 2 0 0->16] [0 0 0 0->0]
r 15.046330022 _23_ RTR  --- 2 DSR 68 [0 ffffffff a 800] ------- [0:255 18:255 32 0] 3 [1 2] [0 2 0 0->16] [0 0 0 0->0]
r 15.046330022 _13_ RTR  --- 2 DSR 68 [0 ffffffff a 800] ------- [0:255 18:255 32 0] 3 [1 2] [0 2 0 0->16] [0 0 0 0->0]
r 15.046330022 _22_ RTR  --- 2 DSR 68 [0 ffffffff a 800] ------- [0:255 18:255 32 0] 3 [1 2] [0 2 0 0->16] [0 0 0 0->0]
r 15.046330160 _25_ RTR  --- 2 DSR 68 [0 ffffffff a 800] ------- [0:255 18:255 32 0] 3 [1 2] [0 2 0 0->16] [0 0 0 0->0]
r 15.046330160 _21_ RTR  --- 2 DSR 68 [0 ffffffff a 800] ------- [0:255 18:255 32 0] 3 [1 2] [0 2 0 0->16] [0 0 0 0->0]
r 15.046330160 _20_ RTR  --- 2 DSR 68 [0 ffffffff a 800] ------- [0:255 18:255 32 0] 3 [1 2] [0 2 0 0->16] [0 0 0 0->0]
r 15.046330160 _24_ RTR  --- 2 DSR 68 [0 ffffffff a 800] ------- [0:255 18:255 32 0] 3 [1 2] [0 2 0 0->16] [0 0 0 0->0]
r 15.046330356 _4_ RTR  --- 2 DSR 68 [0 ffffffff a 800] ------- [0:255 18:255 32 0] 3 [1 2] [0 2 0 0->16] [0 0 0 0->0]
r 15.046330356 _9_ RTR  --- 2 DSR 68 [0 ffffffff a 800] ------- [0:255 18:255 32 0] 3 [1 2] [0 2 0 0->16] [0 0 0 0->0]
r 15.046330356 _16_ RTR  --- 2 DSR 68 [0 ffffffff a 800] ------- [0:255 18:255 32 0] 3 [1 2] [0 2 0 0->16] [0 0 0 0->0]
r 15.046330356 _11_ RTR  --- 2 DSR 68 [0 ffffffff a 800] ------- [0:255 18:255 32 0] 3 [1 2] [0 2 0 0->16] [0 0 0 0->0]
r 15.046330434 _27_ RTR  --- 2 DSR 68 [0 ffffffff a 800] ------- [0:255 18:255 32 0] 3 [1 2] [0 2 0 0->16] [0 0 0 0->0]
r 15.046330434 _19_ RTR  --- 2 DSR 68 [0 ffffffff a 800] ------- [0:255 18:255 32 0] 3 [1 2] [0 2 0 0->16] [0 0 0 0->0]
r 15.046330434 _12_ RTR  --- 2 DSR 68 [0 ffffffff a 800] ------- [0:255 18:255 32 0] 3 [1 2] [0 2 0 0->16] [0 0 0 0->0]
r 15.046330434 _6_ RTR  --- 2 DSR 68 [0 ffffffff a 800] ------- [0:255 18:255 32 0] 3 [1 2] [0 2 0 0->16] [0 0 0 0->0]
r 15.046330434 _18_ RTR  --- 2 DSR 68 [0 ffffffff a 800] ------- [0:255 18:255 32 0] 3 [1 2] [0 2 0 0->16] [0 0 0 0->0]
r 15.046330434 _26_ RTR  --- 2 DSR 68 [0 ffffffff a 800] ------- [0:255 18:255 32 0] 3 [1 2] [0 2 0 0->16] [0 0 0 0->0]
r 15.046330434 _8_ RTR  --- 2 DSR 68 [0 ffffffff a 800] ------- [0:255 18:255 32 0] 3 [1 2] [0 2 0 0->16] [0 0 0 0->0]
r 15.046330434 _14_ RTR  --- 2 DSR 68 [0 ffffffff a 800] ------- [0:255 18:255 32 0] 3 [1 2] [0 2 0 0->16] [0 0 0 0->0]
s 15.047476666 _18_ RTR  --- 3 DSR 60 [0 0 0 0] ------- [18:255 0:255 254 21] 4 [0 2] [1 2 4 0->18] [0 0 0 0->0]
r 15.047592689 _8_ RTR  --- 2 DSR 92 [0 ffffffff b 800] ------- [0:255 18:255 32 0] 4 [1 2] [0 2 0 0->16] [0 0 0 0->0]
r 15.047592689 _22_ RTR  --- 2 DSR 92 [0 ffffffff b 800] ------- [0:255 18:255 32 0] 4 [1 2] [0 2 0 0->16] [0 0 0 0->0]
r 15.047592689 _14_ RTR  --- 2 DSR 92 [0 ffffffff b 800] ------- [0:255 18:255 32 0] 4 [1 2] [0 2 0 0->16] [0 0 0 0->0]
r 15.047592827 _24_ RTR  --- 2 DSR 92 [0 ffffffff b 800] ------- [0:255 18:255 32 0] 4 [1 2] [0 2 0 0->16] [0 0 0 0->0]
r 15.047592827 _20_ RTR  --- 2 DSR 92 [0 ffffffff b 800] ------- [0:255 18:255 32 0] 4 [1 2] [0 2 0 0->16] [0 0 0 0->0]
r 15.047593022 _5_ RTR  --- 2 DSR 92 [0 ffffffff b 800] ------- [0:255 18:255 32 0] 4 [1 2] [0 2 0 0->16] [0 0 0 0->0]
r 15.047593022 _10_ RTR  --- 2 DSR 92 [0 ffffffff b 800] ------- [0:255 18:255 32 0] 4 [1 2] [0 2 0 0->16] [0 0 0 0->0]
r 15.047593022 _17_ RTR  --- 2 DSR 92 [0 ffffffff b 800] ------- [0:255 18:255 32 0] 4 [1 2] [0 2 0 0->16] [0 0 0 0->0]
r 15.047593101 _26_ RTR  --- 2 DSR 92 [0 ffffffff b 800] ------- [0:255 18:255 32 0] 4 [1 2] [0 2 0 0->16] [0 0 0 0->0]
r 15.047593101 _18_ RTR  --- 2 DSR 92 [0 ffffffff b 800] ------- [0:255 18:255 32 0] 4 [1 2] [0 2 0 0->16] [0 0 0 0->0]
r 15.047593101 _13_ RTR  --- 2 DSR 92 [0 ffffffff b 800] ------- [0:255 18:255 32 0] 4 [1 2] [0 2 0 0->16] [0 0 0 0->0]
r 15.047593101 _7_ RTR  --- 2 DSR 92 [0 ffffffff b 800] ------- [0:255 18:255 32 0] 4 [1 2] [0 2 0 0->16] [0 0 0 0->0]
f 15.047834090 _19_ RTR  --- 2 DSR 92 [0 ffffffff 15 800] ------- [0:255 18:255 32 0] 4 [1 2] [0 2 0 0->16] [0 0 0 0->0]
f 15.047890983 _16_ RTR  --- 2 DSR 92 [0 ffffffff 15 800] ------- [0:255 18:255 32 0] 4 [1 2] [0 2 0 0->16] [0 0 0 0->0]
f 15.048023974 _8_ RTR  --- 2 DSR 92 [0 ffffffff 7 800] ------- [0:255 18:255 32 0] 4 [1 2] [0 2 0 0->16] [0 0 0 0->0]
f 15.048123169 _5_ RTR  --- 2 DSR 92 [0 ffffffff 7 800] ------- [0:255 18:255 32 0] 4 [1 2] [0 2 0 0->16] [0 0 0 0->0]
r 15.048643160 _26_ RTR  --- 2 DSR 68 [0 ffffffff 18 800] ------- [0:255 18:255 32 0] 3 [1 2] [0 2 0 0->16] [0 0 0 0->0]
r 15.048835022 _20_ RTR  --- 2 DSR 92 [0 ffffffff 16 800] ------- [0:255 18:255 32 0] 4 [1 2] [0 2 0 0->16] [0 0 0 0->0]
r 15.048835022 _24_ RTR  --- 2 DSR 92 [0 ffffffff 16 800] ------- [0:255 18:255 32 0] 4 [1 2] [0 2 0 0->16] [0 0 0 0->0]
f 15.049856393 _14_ RTR  --- 2 DSR 92 [0 ffffffff a 800] ------- [0:255 18:255 32 0] 4 [1 2] [0 2 0 0->16] [0 0 0 0->0]
f 15.049928516 _20_ RTR  --- 2 DSR 92 [0 ffffffff 15 800] ------- [0:255 18:255 32 0] 4 [1 2] [0 2 0 0->16] [0 0 0 0->0]
r 15.050462224 _12_ RTR  --- 2 DSR 92 [0 ffffffff f 800] ------- [0:255 18:255 32 0] 4 [1 2] [0 2 0 0->16] [0 0 0 0->0]
r 15.050462224 _19_ RTR  --- 2 DSR 92 [0 ffffffff f 800] ------- [0:255 18:255 32 0] 4 [1 2] [0 2 0 0->16] [0 0 0 0->0]
r 15.050462362 _21_ RTR  --- 2 DSR 92 [0 ffffffff f 800] ------- [0:255 18:255 32 0] 4 [1 2] [0 2 0 0->16] [0 0 0 0->0]
r 15.050462558 _9_ RTR  --- 2 DSR 92 [0 ffffffff f 800] ------- [0:255 18:255 32 0] 4 [1 2] [0 2 0 0->16] [0 0 0 0->0]
r 15.050462558 _16_ RTR  --- 2 DSR 92 [0 ffffffff f 800] ------- [0:255 18:255 32 0] 4 [1 2] [0 2 0 0->16] [0 0 0 0->0]
r 15.050781906 _28_ RTR  --- 2 DSR 92 [0 ffffffff 5 800] ------- [0:255 18:255 32 0] 4 [1 2] [0 2 0 0->16] [0 0 0 0->0]
s 15.051589692 _0_ AGT  --- 6 cbr 512 [0 0 0 0] ------- [0:0 18:0 32 0] [1] 0 0
r 15.051589692 _0_ RTR  --- 6 cbr 512 [0 0 0 0] ------- [0:0 18:0 32 0] [1] 0 0
r 15.052368822 _18_ RTR  --- 2 DSR 92 [0 ffffffff 14 800] ------- [0:255 18:255 32 0] 4 [1 2] [0 2 0 0->16] [0 0 0 0->0]
r 15.052368822 _13_ RTR  --- 2 DSR 92 [0 ffffffff 14 800] ------- [0:255 18:255 32 0] 4 [1 2] [0 2 0 0->16] [0 0 0 0->0]
r 15.052368822 _22_ RTR  --- 2 DSR 92 [0 ffffffff 14 800] ------- [0:255 18:255 32 0] 4 [1 2] [0 2 0 0->16] [0 0 0 0->0]
r 15.052368822 _14_ RTR  --- 2 DSR 92 [0 ffffffff 14 800] ------- [0:255 18:255 32 0] 4 [1 2] [0 2 0 0->16] [0 0 0 0->0]
r 15.052368960 _16_ RTR  --- 2 DSR 92 [0 ffffffff 14 800] ------- [0:255 18:255 32 0] 4 [1 2] [0 2 0 0->16] [0 0 0 0->0]
r 15.052368960 _10_ RTR  --- 2 DSR 92 [0 ffffffff 14 800] ------- [0:255 18:255 32 0] 4 [1 2] [0 2 0 0->16] [0 0 0 0->0]
r 15.052368960 _11_ RTR  --- 2 DSR 92 [0 ffffffff 14 800] ------- [0:255 18:255 32 0] 4 [1 2] [0 2 0 0->16] [0 0 0 0->0]
r 15.052368960 _17_ RTR  --- 2 DSR 92 [0 ffffffff 14 800] ------- [0:255 18:255 32 0] 4 [1 2] [0 2 0 0->16] [0 0 0 0->0]
r 15.052369155 _21_ RTR  --- 2 DSR 92 [0 ffffffff 14 800] ------- [0:255 18:255 32 0] 4 [1 2] [0 2 0 0->16] [0 0 0 0->0]
r 15.052369155 _24_ RTR  --- 2 DSR 92 [0 ffffffff 14 800] ------- [0:255 18:255 32 0] 4 [1 2] [0 2 0 0->16] [0 0 0 0->0]
r 15.052369234 _7_ RTR  --- 2 DSR 92 [0 ffffffff 14 800] ------- [0:255 18:255 32 0] 4 [1 2] [0 2 0 0->16] [0 0 0 0->0]
r 15.052369234 _23_ RTR  --- 2 DSR 92 [0 ffffffff 14 800] ------- [0:255 18:255 32 0] 4 [1 2] [0 2 0 0->16] [0 0 0 0->0]
r 15.052369234 _19_ RTR  --- 2 DSR 92 [0 ffffffff 14 800] ------- [0:255 18:255 32 0] 4 [1 2] [0 2 0 0->16] [0 0 0 0->0]
r 15.052369234 _8_ RTR  --- 2 DSR 92 [0 ffffffff 14 800] ------- [0:255 18:255 32 0] 4 [1 2] [0 2 0 0->16] [0 0 0 0->0]
s 15.052634140 _18_ RTR  --- 5 DSR 68 [0 0 0 0] ------- [18:255 0:255 254 11] 5 [0 2] [1 2 5 0->18] [0 0 0 0->0]
f 15.052792180 _2_ RTR  --- 2 DSR 68 [0 ffffffff 4 800] ------- [0:255 18:255 32 0] 3 [1 2] [0 2 0 0->16] [0 0 0 0->0]
s 15.052947479 _18_ RTR  --- 4 DSR 60 [0 0 0 0] ------- [18:255 0:255 254 10] 4 [0 2] [1 2 4 0->18] [0 0 0 0->0]
r 15.053771567 _5_ RTR  --- 2 DSR 92 [0 ffffffff 8 800] ------- [0:255 18:255 32 0] 4 [1 2] [0 2 0 0->16] [0 0 0 0->0]
r 15.053771567 _24_ RTR  --- 2 DSR 92 [0 ffffffff 8 800] ------- [0:255 18:255 32 0] 4 [1 2] [0 2 0 0->16] [0 0 0 0->0]
r 15.053771567 _11_ RTR  --- 2 DSR 92 [0 ffffffff 8 800] ------- [0:255 18:255 32 0] 4 [1 2] [0 2 0 0->16] [0 0 0 0->0]
r 15.053771705 _26_ RTR  --- 2 DSR 92 [0 ffffffff 8 800] ------- [0:255 18:255 32 0] 4 [1 2] [0 2 0 0->16] [0 0 0 0->0]
r 15.053771705 _22_ RTR  --- 2 DSR 92 [0 ffffffff 8 800] ------- [0:255 18:255 32 0] 4 [1 2] [0 2 0 0->16] [0 0 0 0->0]
r 15.053771900 _2_ RTR  --- 2 DSR 92 [0 ffffffff 8 800] ------- [0:255 18:255 32 0] 4 [1 2] [0 2 0 0->16] [0 0 0 0->0]
r 15.053771900 _7_ RTR  --- 2 DSR 92 [0 ffffffff 8 800] ------- [0:255 18:255 32 0] 4 [1 2] [0 2 0 0->16] [0 0 0 0->0]
r 15.053771900 _14_ RTR  --- 2 DSR 92 [0 ffffffff 8 800] ------- [0:255 18:255 32 0] 4 [1 2] [0 2 0 0->16] [0 0 0 0->0]
r 15.053771979 _28_ RTR  --- 2 DSR 92 [0 ffffffff 8 800] ------- [0:255 18:255 32 0] 4 [1 2] [0 2 0 0->16] [0 0 0 0->0]
r 15.053771979 _20_ RTR  --- 2 DSR 92 [0 ffffffff 8 800] ------- [0:255 18:255 32 0] 4 [1 2] [0 2 0 0->16] [0 0 0 0->0]
r 15.053771979 _10_ RTR  --- 2 DSR 92 [0 ffffffff 8 800] ------- [0:255 18:255 32 0] 4 [1 2] [0 2 0 0->16] [0 0 0 0->0]
r 15.053771979 _4_ RTR  --- 2 DSR 92 [0 ffffffff 8 800] ------- [0:255 18:255 32 0] 4 [1 2] [0 2 0 0->16] [0 0 0 0->0]
r 15.054922039 _24_ RTR  --- 2 DSR 68 [0 ffffffff 1a 800] ------- [0:255 18:255 32 0] 3 [1 2] [0 2 0 0->16] [0 0 0 0->0]
r 15.054922039 _4_ RTR  --- 2 DSR 68 [0 ffffffff 1a 800] ------- [0:255 18:255 32 0] 3 [1 2] [0 2 0 0->16] [0 0 0 0->0]
r 15.054922039 _28_ RTR  --- 2 DSR 68 [0 ffffffff 1a 800] ------- [0:255 18:255 32 0] 3 [1 2] [0 2 0 0->16] [0 0 0 0->0]
r 15.054922039 _5_ RTR  --- 2 DSR 68 [0 ffffffff 1a 800] ------- [0:255 18:255 32 0] 3 [1 2] [0 2 0 0->16] [0 0 0 0->0]
r 15.054922177 _7_ RTR  --- 2 DSR 68 [0 ffffffff 1a 800] ------- [0:255 18:255 32 0] 3 [1 2] [0 2 0 0->16] [0 0 0 0->0]
r 15.054922177 _1_ RTR  --- 2 DSR 68 [0 ffffffff 1a 800] ------- [0:255 18:255 32 0] 3 [1 2] [0 2 0 0->16] [0 0 0 0->0]
r 15.054922177 _2_ RTR  --- 2 DSR 68 [0 ffffffff 1a 800] ------- [0:255 18:255 32 0] 3 [1 2] [0 2 0 0->16] [0 0 0 0->0]
r 15.054922177 _8_ RTR  --- 2 DSR 68 [0 ffffffff 1a 800] ------- [0:255 18:255 32 0] 3 [1 2] [0 2 0 0->16] [0 0 0 0->0]
r 15.054922372 _22_ RTR  --- 2 DSR 68 [0 ffffffff 1a 800] ------- [0:255 18:255 32 0] 3 [1 2] [0 2 0 0->16] [0 0 0 0->0]
r 15.054922372 _27_ RTR  --- 2 DSR 68 [0 ffffffff 1a 800] ------- [0:255 18:255 32 0] 3 [1 2] [0 2 0 0->16] [0 0 0 0->0]
r 15.054922451 _10_ RTR  --- 2 DSR 68 [0 ffffffff 1a 800] ------- [0:255 18:255 32 0] 3 [1 2] [0 2 0 0->16] [0 0 0 0->0]
r 15.054922451 _29_ RTR  --- 2 DSR 68 [0 ffffffff 1a 800] ------- [0:255 18:255 32 0] 3 [1 2] [0 2 0 0->16] [0 0 0 0->0]
r 15.054922451 _25_ RTR  --- 2 DSR 68 [0 ffffffff 1a 800] ------- [0:255 18:255 32 0] 3 [1 2] [0 2 0 0->16] [0 0 0 0->0]
r 15.054922451 _11_ RTR  --- 2 DSR 68 [0 ffffffff 1a 800] ------- [0:255 18:255 32 0] 3 [1 2] [0 2 0 0->16] [0 0 0 0->0]
r 15.055832510 _29_ RTR  --- 2 DSR 48 [0 ffffffff 1 800] ------- [0:255 18:255 32 0] 2 [1 2] [0 2 0 0->16] [0 0 0 0->0]
r 15.055832510 _4_ RTR  --- 2 DSR 48 [0 ffffffff 1 800] ------- [0:255 18:255 32 0] 2 [1 2] [0 2 0 0->16] [0 0 0 0->0]
r 15.055832510 _28_ RTR  --- 2 DSR 48 [0 ffffffff 1 800] ------- [0:255 18:255 32 0] 2 [1 2] [0 2 0 0->16] [0 0 0 0->0]
r 15.055832648 _27_ RTR  --- 2 DSR 48 [0 ffffffff 1 800] ------- [0:255 18:255 32 0] 2 [1 2] [0 2 0 0->16] [0 0 0 0->0]
r 15.055832648 _26_ RTR  --- 2 DSR 48 [0 ffffffff 1 800] ------- [0:255 18:255 32 0] 2 [1 2] [0 2 0 0->16] [0 0 0 0->0]
r 15.055832843 _0_ RTR  --- 2 DSR 48 [0 ffffffff 1 800] ------- [0:255 18:255 32 0] 2 [1 2] [0 2 0 0->16] [0 0 0 0->0]
r 15.055832843 _7_ RTR  --- 2 DSR 48 [0 ffffffff 1 800] ------- [0:255 18:255 32 0] 2 [1 2] [0 2 0 0->16] [0 0 0 0->0]
r 15.055832843 _2_ RTR  --- 2 DSR 48 [0 ffffffff 1 800] ------- [0:255 18:255 32 0] 2 [1 2] [0 2 0 0->16] [0 0 0 0->0]
r 15.055832922 _25_ RTR  --- 2 DSR 48 [0 ffffffff 1 800] ------- [0:255 18:255 32 0] 2 [1 2] [0 2 0 0->16] [0 0 0 0->0]
r 15.055832922 _3_ RTR  --- 2 DSR 48 [0 ffffffff 1 800] ------- [0:255 18:255 32 0] 2 [1 2] [0 2 0 0->16] [0 0 0 0->0]
r 15.055832922 _24_ RTR  --- 2 DSR 48 [0 ffffffff 1 800] ------- [0:255 18:255 32 0] 2 [1 2] [0 2 0 0->16] [0 0 0 0->0]
r 15.055832922 _5_ RTR  --- 2 DSR 48 [0 ffffffff 1 800] ------- [0:255 18:255 32 0] 2 [1 2] [0 2 0 0->16] [0 0 0 0->0]
s 15.056142887 _18_ RTR  --- 8 DSR 68 [0 0 0 0] ------- [18:255 0:255 254 20] 5 [0 2] [1 2 5 0->18] [0 0 0 0->0]
f 15.056739659 _17_ RTR  --- 2 DSR 120 [0 ffffffff b 800] ------- [0:255 18:255 32 0] 5 [1 2] [0 2 0 0->16] [0 0 0 0->0]
r 15.056862843 _27_ RTR  --- 2 DSR 48 [0 ffffffff 1d 800] ------- [0:255 18:255 32 0] 2 [1 2] [0 2 0 0->16] [0 0 0 0->0]
r 15.056862843 _0_ RTR  --- 2 DSR 48 [0 ffffffff 1d 800] ------- [0:255 18:255 32 0] 2 [1 2] [0 2 0 0->16] [0 0 0 0->0]
r 15.056862843 _1_ RTR  --- 2 DSR 48 [0 ffffffff 1d 800] ------- [0:255 18:255 32 0] 2 [1 2] [0 2 0 0->16] [0 0 0 0->0]
r 15.056862981 _3_ RTR  --- 2 DSR 48 [0 ffffffff 1d 800] ------- [0:255 18:255 32 0] 2 [1 2] [0 2 0 0->16] [0 0 0 0->0]