n -t * -s 0  -x 100 -y 0 -Z 0 -z 30  -v circle -c black
n -t * -s 1  -x 300 -y 0 -Z 0 -z 30  -v circle -c black
n -t * -s 2  -x 500 -y 0 -Z 0 -z 30  -v circle -c black
n -t * -s 3  -x 100 -y 100 -Z 0 -z 30  -v circle -c black
n -t * -s 4  -x 300 -y 100 -Z 0 -z 30  -v circle -c black
n -t * -s 5  -x 500 -y 100 -Z 0 -z 30  -v circle -c black
n -t * -s 6  -x 100 -y 200 -Z 0 -z 30  -v circle -c black
n -t * -s 7  -x 300 -y 200 -Z 0 -z 30  -v circle -c black
n -t * -s 8  -x 500 -y 200 -Z 0 -z 30  -v circle -c black
n -t * -s 9  -x 100 -y 300 -Z 0 -z 30  -v circle -c black
n -t * -s 10  -x 300 -y 300 -Z 0 -z 30  -v circle -c black
n -t * -s 11  -x 500 -y 300 -Z 0 -z 30  -v circle -c black
n -t * -s 12  -x 100 -y 400 -Z 0 -z 30  -v circle -c black
n -t * -s 13  -x 300 -y 400 -Z 0 -z 30  -v circle -c black
n -t * -s 14  -x 500 -y 400 -Z 0 -z 30  -v circle -c black
n -t * -s 15  -x 100 -y 500 -Z 0 -z 30  -v circle -c black
n -t * -s 16  -x 300 -y 500 -Z 0 -z 30  -v circle -c black
n -t * -s 17  -x 500 -y 500 -Z 0 -z 30  -v circle -c black
n -t * -s 18  -x 400 -y 500 -Z 0 -z 30  -v circle -c black
n -t * -s 19  -x 200 -y 500 -Z 0 -z 30  -v circle -c black
n -t * -s 20  -x 400 -y 400 -Z 0 -z 30  -v circle -c black
n -t * -s 21  -x 200 -y 400 -Z 0 -z 30  -v circle -c black
n -t * -s 22  -x 400 -y 300 -Z 0 -z 30  -v circle -c black
n -t * -s 23  -x 200 -y 300 -Z 0 -z 30  -v circle -c black
n -t * -s 24  -x 400 -y 200 -Z 0 -z 30  -v circle -c black
n -t * -s 25  -x 200 -y 200 -Z 0 -z 30  -v circle -c black
n -t * -s 26  -x 400 -y 100 -Z 0 -z 30  -v circle -c black
n -t * -s 27  -x 200 -y 100 -Z 0 -z 30  -v circle -c black
n -t * -s 28  -x 400 -y 0 -Z 0 -z 30  -v circle -c black
n -t * -s 29  -x 200 -y 0 -Z 0 -z 30  -v circle -c black
V -t * -v 1.0a5 -a 0
W -t * -x 500 -y 500
A -t * -n 1 -p 0 -o 0xffffffff -c 31 -a 1
A -t * -h 1 -m 2147483647 -s 0
+ -t 15.000000000 -s 0 -d -1 -p cbr -e 512 -c 2 -a 0 -i 0 -k AGT 
- -t 15.000000000 -s 0 -d -1 -p cbr -e 512 -c 2 -a 0 -i 0 -k AGT
h -t 15.000000000 -s 0 -d -1 -p cbr -e 512 -c 2 -a 0 -i 0 -k AGT
+ -t 15.007402038 -s 0 -d -1 -p DSR -e 32 -c 2 -a 0 -i 1 -k RTR 
- -t 15.007402038 -s 0 -d -1 -p DSR -e 32 -c 2 -a 0 -i 1 -k RTR
h -t 15.007402038 -s 0 -d -1 -p DSR -e 32 -c 2 -a 0 -i 1 -k RTR
+ -t 15.034300949 -s 0 -d -1 -p DSR -e 32 -c 2 -a 0 -i 2 -k RTR 
- -t 15.034300949 -s 0 -d -1 -p DSR -e 32 -c 2 -a 0 -i 2 -k RTR
h -t 15.034300949 -s 0 -d -1 -p DSR -e 32 -c 2 -a 0 -i 2 -k RTR
+ -t 15.036593573 -s 6 -d -1 -p DSR -e 48 -c 2 -a 0 -i 2 -k RTR 
- -t 15.036593573 -s 6 -d -1 -p DSR -e 48 -c 2 -a 0 -i 2 -k RTR
h -t 15.036593573 -s 6 -d -1 -p DSR -e 48 -c 2 -a 0 -i 2 -k RTR
+ -t 15.038702144 -s 27 -d -1 -p DSR -e 48 -c 2 -a 0 -i 2 -k RTR 
- -t 15.038702144 -s 27 -d -1 -p DSR -e 48 -c 2 -a 0 -i 2 -k RTR
h -t 15.038702144 -s 27 -d -1 -p DSR -e 48 -c 2 -a 0 -i 2 -k RTR
+ -t 15.038776621 -s 25 -d -1 -p DSR -e 48 -c 2 -a 0 -i 2 -k RTR 
- -t 15.038776621 -s 25 -d -1 -p DSR -e 48 -c 2 -a 0 -i 2 -k RTR
h -t 15.038776621 -s 25 -d -1 -p DSR -e 48 -c 2 -a 0 -i 2 -k RTR
+ -t 15.039174184 -s 21 -d -1 -p DSR -e 68 -c 2 -a 0 -i 2 -k RTR 
- -t 15.039174184 -s 21 -d -1 -p DSR -e 68 -c 2 -a 0 -i 2 -k RTR
h -t 15.039174184 -s 21 -d -1 -p DSR -e 68 -c 2 -a 0 -i 2 -k RTR
+ -t 15.039241963 -s 3 -d -1 -p DSR -e 48 -c 2 -a 0 -i 2 -k RTR 
- -t 15.039241963 -s 3 -d -1 -p DSR -e 48 -c 2 -a 0 -i 2 -k RTR
h -t 15.039241963 -s 3 -d -1 -p DSR -e 48 -c 2 -a 0 -i 2 -k RTR
+ -t 15.039758654 -s 1 -d -1 -p DSR -e 48 -c 2 -a 0 -i 2 -k RTR 
- -t 15.039758654 -s 1 -d -1 -p DSR -e 48 -c 2 -a 0 -i 2 -k RTR
h -t 15.039758654 -s 1 -d -1 -p DSR -e 48 -c 2 -a 0 -i 2 -k RTR
+ -t 15.039800123 -s 9 -d -1 -p DSR -e 68 -c 2 -a 0 -i 2 -k RTR 
- -t 15.039800123 -s 9 -d -1 -p DSR -e 68 -c 2 -a 0 -i 2 -k RTR
h -t 15.039800123 -s 9 -d -1 -p DSR -e 68 -c 2 -a 0 -i 2 -k RTR
+ -t 15.041131349 -s 10 -d -1 -p DSR -e 68 -c 2 -a 0 -i 2 -k RTR 
- -t 15.041131349 -s 10 -d -1 -p DSR -e 68 -c 2 -a 0 -i 2 -k RTR
h -t 15.041131349 -s 10 -d -1 -p DSR -e 68 -c 2 -a 0 -i 2 -k RTR
+ -t 15.041324221 -s 4 -d -1 -p DSR -e 48 -c 2 -a 0 -i 2 -k RTR 
- -t 15.041324221 -s 4 -d -1 -p DSR -e 48 -c 2 -a 0 -i 2 -k RTR
h -t 15.041324221 -s 4 -d -1 -p DSR -e 48 -c 2 -a 0 -i 2 -k RTR
+ -t 15.041510517 -s 7 -d -1 -p DSR -e 68 -c 2 -a 0 -i 2 -k RTR 
- -t 15.041510517 -s 7 -d -1 -p DSR -e 68 -c 2 -a 0 -i 2 -k RTR
h -t 15.041510517 -s 7 -d -1 -p DSR -e 68 -c 2 -a 0 -i 2 -k RTR
+ -t 15.042015363 -s 28 -d -1 -p DSR -e 68 -c 2 -a 0 -i 2 -k RTR 
- -t 15.042015363 -s 28 -d -1 -p DSR -e 68 -c 2 -a 0 -i 2 -k RTR
h -t 15.042015363 -s 28 -d -1 -p DSR -e 68 -c 2 -a 0 -i 2 -k RTR
+ -t 15.042271614 -s 29 -d -1 -p DSR -e 48 -c 2 -a 0 -i 2 -k RTR 
- -t 15.042271614 -s 29 -d -1 -p DSR -e 48 -c 2 -a 0 -i 2 -k RTR
h -t 15.042271614 -s 29 -d -1 -p DSR -e 48 -c 2 -a 0 -i 2 -k RTR
+ -t 15.042308071 -s 12 -d -1 -p DSR -e 68 -c 2 -a 0 -i 2 -k RTR 
- -t 15.042308071 -s 12 -d -1 -p DSR -e 68 -c 2 -a 0 -i 2 -k RTR
h -t 15.042308071 -s 12 -d -1 -p DSR -e 68 -c 2 -a 0 -i 2 -k RTR
+ -t 15.043032502 -s 23 -d -1 -p DSR -e 68 -c 2 -a 0 -i 2 -k RTR 
- -t 15.043032502 -s 23 -d -1 -p DSR -e 68 -c 2 -a 0 -i 2 -k RTR
h -t 15.043032502 -s 23 -d -1 -p DSR -e 68 -c 2 -a 0 -i 2 -k RTR
+ -t 15.043280011 -s 26 -d -1 -p DSR -e 68 -c 2 -a 0 -i 2 -k RTR 
- -t 15.043280011 -s 26 -d -1 -p DSR -e 68 -c 2 -a 0 -i 2 -k RTR
h -t 15.043280011 -s 26 -d -1 -p DSR -e 68 -c 2 -a 0 -i 2 -k RTR
+ -t 15.043933419 -s 15 -d -1 -p DSR -e 92 -c 2 -a 0 -i 2 -k RTR 
- -t 15.043933419 -s 15 -d -1 -p DSR -e 92 -c 2 -a 0 -i 2 -k RTR
h -t 15.043933419 -s 15 -d -1 -p DSR -e 92 -c 2 -a 0 -i 2 -k RTR
+ -t 15.043992452 -s 11 -d -1 -p DSR -e 92 -c 2 -a 0 -i 2 -k RTR 
- -t 15.043992452 -s 11 -d -1 -p DSR -e 92 -c 2 -a 0 -i 2 -k RTR
h -t 15.043992452 -s 11 -d -1 -p DSR -e 92 -c 2 -a 0 -i 2 -k RTR
+ -t 15.044752923 -s 24 -d -1 -p DSR -e 68 -c 2 -a 0 -i 2 -k RTR 
- -t 15.044752923 -s 24 -d -1 -p DSR -e 68 -c 2 -a 0 -i 2 -k RTR
h -t 15.044752923 -s 24 -d -1 -p DSR -e 68 -c 2 -a 0 -i 2 -k RTR
+ -t 15.045137675 -s 13 -d -1 -p DSR -e 92 -c 2 -a 0 -i 2 -k RTR 
- -t 15.045137675 -s 13 -d -1 -p DSR -e 92 -c 2 -a 0 -i 2 -k RTR
h -t 15.045137675 -s 13 -d -1 -p DSR -e 92 -c 2 -a 0 -i 2 -k RTR
+ -t 15.045941997 -s 22 -d -1 -p DSR -e 92 -c 2 -a 0 -i 2 -k RTR 
- -t 15.045941997 -s 22 -d -1 -p DSR -e 92 -c 2 -a 0 -i 2 -k RTR
h -t 15.045941997 -s 22 -d -1 -p DSR -e 92 -c 2 -a 0 -i 2 -k RTR
+ -t 15.047476666 -s 18 -d 21 -p DSR -e 60 -c 2 -a 0 -i 3 -k RTR 
- -t 15.047476666 -s 18 -d 21 -p DSR -e 60 -c 2 -a 0 -i 3 -k RTR
h -t 15.047476666 -s 18 -d 21 -p DSR -e 60 -c 2 -a 0 -i 3 -k RTR
+ -t 15.047834090 -s 19 -d -1 -p DSR -e 92 -c 2 -a 0 -i 2 -k RTR 
- -t 15.047834090 -s 19 -d -1 -p DSR -e 92 -c 2 -a 0 -i 2 -k RTR
h -t 15.047834090 -s 19 -d -1 -p DSR -e 92 -c 2 -a 0 -i 2 -k RTR
+ -t 15.047890983 -s 16 -d -1 -p DSR -e 92 -c 2 -a 0 -i 2 -k RTR 
- -t 15.047890983 -s 16 -d -1 -p DSR -e 92 -c 2 -a 0 -i 2 -k RTR
h -t 15.047890983 -s 16 -d -1 -p DSR -e 92 -c 2 -a 0 -i 2 -k RTR
+ -t 15.048023974 -s 8 -d -1 -p DSR -e 92 -c 2 -a 0 -i 2 -k RTR 
- -t 15.048023974 -s 8 -d -1 -p DSR -e 92 -c 2 -a 0 -i 2 -k RTR
h -t 15.048023974 -s 8 -d -1 -p DSR -e 92 -c 2 -a 0 -i 2 -k RTR
+ -t 15.048123169 -s 5 -d -1 -p DSR -e 92 -c 2 -a 0 -i 2 -k RTR 
- -t 15.048123169 -s 5 -d -1 -p DSR -e 92 -c 2 -a 0 -i 2 -k RTR
h -t 15.048123169 -s 5 -d -1 -p DSR -e 92 -c 2 -a 0 -i 2 -k RTR
+ -t 15.049856393 -s 14 -d -1 -p DSR -e 92 -c 2 -a 0 -i 2 -k RTR 
- -t 15.049856393 -s 14 -d -1 -p DSR -e 92 -c 2 -a 0 -i 2 -k RTR
h -t 15.049856393 -s 14 -d -1 -p DSR -e 92 -c 2 -a 0 -i 2 -k RTR
+ -t 15.049928516 -s 20 -d -1 -p DSR -e 92 -c 2 -a 0 -i 2 -k RTR 
- -t 15.049928516 -s 20 -d -1 -p DSR -e 92 -c 2 -a 0 -i 2 -k RTR
h -t 15.049928516 -s 20 -d -1 -p DSR -e 92 -c 2 -a 0 -i 2 -k RTR
+ -t 15.051589692 -s 0 -d -1 -p cbr -e 512 -c 2 -a 0 -i 6 -k AGT 
- -t 15.051589692 -s 0 -d -1 -p cbr -e 512 -c 2 -a 0 -i 6 -k AGT
h -t 15.051589692 -s 0 -d -1 -p cbr -e 512 -c 2 -a 0 -i 6 -k AGT
+ -t 15.052634140 -s 18 -d 11 -p DSR -e 68 -c 2 -a 0 -i 5 -k RTR 
- -t 15.052634140 -s 18 -d 11 -p DSR -e 68 -c 2 -a 0 -i 5 -k RTR
h -t 15.052634140 -s 18 -d 11 -p DSR -e 68 -c 2 -a 0 -i 5 -k RTR
+ -t 15.052792180 -s 2 -d -1 -p DSR -e 68 -c 2 -a 0 -i 2 -k RTR 
- -t 15.052792180 -s 2 -d -1 -p DSR -e 68 -c 2 -a 0 -i 2 -k RTR
h -t 15.052792180 -s 2 -d -1 -p DSR -e 68 -c 2 -a 0 -i 2 -k RTR
+ -t 15.052947479 -s 18 -d 10 -p DSR -e 60 -c 2 -a 0 -i 4 -k RTR 
- -t 15.052947479 -s 18 -d 10 -p DSR -e 60 -c 2 -a 0 -i 4 -k RTR
h -t 15.052947479 -s 18 -d 10 -p DSR -e 60 -c 2 -a 0 -i 4 -k RTR
+ -t 15.056142887 -s 18 -d 20 -p DSR -e 68 -c 2 -a 0 -i 8 -k RTR 
- -t 15.056142887 -s 18 -d 20 -p DSR -e 68 -c 2 -a 0 -i 8 -k RTR
h -t 15.056142887 -s 18 -d 20 -p DSR -e 68 -c 2 -a 0 -i 8 -k RTR
+ -t 15.056739659 -s 17 -d -1 -p DSR -e 120 -c 2 -a 0 -i 2 -k RTR 
- -t 15.056739659 -s 17 -d -1 -p DSR -e 120 -c 2 -a 0 -i 2 -k RTR
h -t 15.056739659 -s 17 -d -1 -p DSR -e 120 -c 2 -a 0 -i 2 -k RTR
+ -t 15.062134199 -s 18 -d 19 -p DSR -e 68 -c 2 -a 0 -i 9 -k RTR 
- -t 15.062134199 -s 18 -d 19 -p DSR -e 68 -c 2 -a 0 -i 9 -k RTR
h -t 15.062134199 -s 18 -d 19 -p DSR -e 68 -c 2 -a 0 -i 9 -k RTR
+ -t 15.066144532 -s 21 -d 6 -p DSR -e 60 -c 2 -a 0 -i 3 -k RTR 
- -t 15.066144532 -s 21 -d 6 -p DSR -e 60 -c 2 -a 0 -i 3 -k RTR
h -t 15.066144532 -s 21 -d 6 -p DSR -e 60 -c 2 -a 0 -i 3 -k RTR
+ -t 15.067972745 -s 18 -d 14 -p DSR -e 68 -c 2 -a 0 -i 12 -k RTR 
- -t 15.067972745 -s 18 -d 14 -p DSR -e 68 -c 2 -a 0 -i 12 -k RTR
h -t 15.067972745 -s 18 -d 14 -p DSR -e 68 -c 2 -a 0 -i 12 -k RTR
+ -t 15.068182768 -s 6 -d 0 -p DSR -e 60 -c 2 -a 0 -i 3 -k RTR 
- -t 15.068182768 -s 6 -d 0 -p DSR -e 60 -c 2 -a 0 -i 3 -k RTR
h -t 15.068182768 -s 6 -d 0 -p DSR -e 60 -c 2 -a 0 -i 3 -k RTR
+ -t 15.070360768 -s 0 -d 6 -p cbr -e 556 -c 2 -a 0 -i 0 -k RTR 
- -t 15.070360768 -s 0 -d 6 -p cbr -e 556 -c 2 -a 0 -i 0 -k RTR
h -t 15.070360768 -s 0 -d 6 -p cbr -e 556 -c 2 -a 0 -i 0 -k RTR
+ -t 15.070560114 -s 18 -d 13 -p DSR -e 68 -c 2 -a 0 -i 10 -k RTR 
- -t 15.070560114 -s 18 -d 13 -p DSR -e 68 -c 2 -a 0 -i 10 -k RTR
h -t 15.070560114 -s 18 -d 13 -p DSR -e 68 -c 2 -a 0 -i 10 -k RTR
+ -t 15.072940501 -s 18 -d 16 -p DSR -e 68 -c 2 -a 0 -i 11 -k RTR 
- -t 15.072940501 -s 18 -d 16 -p DSR -e 68 -c 2 -a 0 -i 11 -k RTR
h -t 15.072940501 -s 18 -d 16 -p DSR -e 68 -c 2 -a 0 -i 11 -k RTR
+ -t 15.079807424 -s 18 -d 17 -p DSR -e 76 -c 2 -a 0 -i 13 -k RTR 
- -t 15.079807424 -s 18 -d 17 -p DSR -e 76 -c 2 -a 0 -i 13 -k RTR
h -t 15.079807424 -s 18 -d 17 -p DSR -e 76 -c 2 -a 0 -i 13 -k RTR
+ -t 15.084326768 -s 6 -d 21 -p cbr -e 556 -c 2 -a 0 -i 0 -k RTR 
- -t 15.084326768 -s 6 -d 21 -p cbr -e 556 -c 2 -a 0 -i 0 -k RTR
h -t 15.084326768 -s 6 -d 21 -p cbr -e 556 -c 2 -a 0 -i 0 -k RTR
+ -t 15.090192537 -s 0 -d -1 -p cbr -e 512 -c 2 -a 0 -i 14 -k AGT 
- -t 15.090192537 -s 0 -d -1 -p cbr -e 512 -c 2 -a 0 -i 14 -k AGT
h -t 15.090192537 -s 0 -d -1 -p cbr -e 512 -c 2 -a 0 -i 14 -k AGT
+ -t 15.090192537 -s 0 -d 6 -p cbr -e 556 -c 2 -a 0 -i 14 -k RTR 
- -t 15.090192537 -s 0 -d 6 -p cbr -e 556 -c 2 -a 0 -i 14 -k RTR
h -t 15.090192537 -s 0 -d 6 -p cbr -e 556 -c 2 -a 0 -i 14 -k RTR
+ -t 15.090253004 -s 21 -d 18 -p cbr -e 556 -c 2 -a 0 -i 0 -k RTR 
- -t 15.090253004 -s 21 -d 18 -p cbr -e 556 -c 2 -a 0 -i 0 -k RTR
h -t 15.090253004 -s 21 -d 18 -p cbr -e 556 -c 2 -a 0 -i 0 -k RTR
r -t 15.096219240 -s 18 -d 18 -p cbr -e 512 -c 2 -a 0 -i 0 -k AGT
+ -t 15.100360768 -s 0 -d 6 -p cbr -e 556 -c 2 -a 0 -i 6 -k RTR 
- -t 15.100360768 -s 0 -d 6 -p cbr -e 556 -c 2 -a 0 -i 6 -k RTR
h -t 15.100360768 -s 0 -d 6 -p cbr -e 556 -c 2 -a 0 -i 6 -k RTR
+ -t 15.102695869 -s 6 -d 21 -p cbr -e 556 -c 2 -a 0 -i 14 -k RTR 
- -t 15.102695869 -s 6 -d 21 -p cbr -e 556 -c 2 -a 0 -i 14 -k RTR
h -t 15.102695869 -s 6 -d 21 -p cbr -e 556 -c 2 -a 0 -i 14 -k RTR
+ -t 15.108662536 -s 6 -d 21 -p cbr -e 556 -c 2 -a 0 -i 6 -k RTR 
- -t 15.108662536 -s 6 -d 21 -p cbr -e 556 -c 2 -a 0 -i 6 -k RTR
h -t 15.108662536 -s 6 -d 21 -p cbr -e 556 -c 2 -a 0 -i 6 -k RTR
+ -t 15.114928772 -s 21 -d 18 -p cbr -e 556 -c 2 -a 0 -i 14 -k RTR 
- -t 15.114928772 -s 21 -d 18 -p cbr -e 556 -c 2 -a 0 -i 14 -k RTR
h -t 15.114928772 -s 21 -d 18 -p cbr -e 556 -c 2 -a 0 -i 14 -k RTR
r -t 15.121115008 -s 18 -d 18 -p cbr -e 512 -c 2 -a 0 -i 14 -k AGT
+ -t 15.127566658 -s 21 -d 18 -p cbr -e 556 -c 2 -a 0 -i 6 -k RTR 
- -t 15.127566658 -s 21 -d 18 -p cbr -e 556 -c 2 -a 0 -i 6 -k RTR
h -t 15.127566658 -s 21 -d 18 -p cbr -e 556 -c 2 -a 0 -i 6 -k RTR
r -t 15.133932895 -s 18 -d 18 -p cbr -e 512 -c 2 -a 0 -i 6 -k AGT
+ -t 15.139934895 -s 19 -d 21 -p DSR -e 68 -c 2 -a 0 -i 9 -k RTR 
- -t 15.139934895 -s 19 -d 21 -p DSR -e 68 -c 2 -a 0 -i 9 -k RTR
h -t 15.139934895 -s 19 -d 21 -p DSR -e 68 -c 2 -a 0 -i 9 -k RTR
+ -t 15.142295895 -s 21 -d 6 -p DSR -e 68 -c 2 -a 0 -i 9 -k RTR 
- -t 15.142295895 -s 21 -d 6 -p DSR -e 68 -c 2 -a 0 -i 9 -k RTR
h -t 15.142295895 -s 21 -d 6 -p DSR -e 68 -c 2 -a 0 -i 9 -k RTR
+ -t 15.144561640 -s 17 -d 11 -p DSR -e 76 -c 2 -a 0 -i 13 -k RTR 
- -t 15.144561640 -s 17 -d 11 -p DSR -e 76 -c 2 -a 0 -i 13 -k RTR
h -t 15.144561640 -s 17 -d 11 -p DSR -e 76 -c 2 -a 0 -i 13 -k RTR
+ -t 15.146582973 -s 16 -d 21 -p DSR -e 68 -c 2 -a 0 -i 11 -k RTR 
- -t 15.146582973 -s 16 -d 21 -p DSR -e 68 -c 2 -a 0 -i 11 -k RTR
h -t 15.146582973 -s 16 -d 21 -p DSR -e 68 -c 2 -a 0 -i 11 -k RTR
+ -t 15.148809640 -s 11 -d 7 -p DSR -e 76 -c 2 -a 0 -i 13 -k RTR 
- -t 15.148809640 -s 11 -d 7 -p DSR -e 76 -c 2 -a 0 -i 13 -k RTR
h -t 15.148809640 -s 11 -d 7 -p DSR -e 76 -c 2 -a 0 -i 13 -k RTR
+ -t 15.150931799 -s 13 -d 21 -p DSR -e 68 -c 2 -a 0 -i 10 -k RTR 
- -t 15.150931799 -s 13 -d 21 -p DSR -e 68 -c 2 -a 0 -i 10 -k RTR
h -t 15.150931799 -s 13 -d 21 -p DSR -e 68 -c 2 -a 0 -i 10 -k RTR
+ -t 15.153761835 -s 6 -d 0 -p DSR -e 68 -c 2 -a 0 -i 9 -k RTR 
- -t 15.153761835 -s 6 -d 0 -p DSR -e 68 -c 2 -a 0 -i 9 -k RTR
h -t 15.153761835 -s 6 -d 0 -p DSR -e 68 -c 2 -a 0 -i 9 -k RTR
+ -t 15.156193445 -s 7 -d 6 -p DSR -e 76 -c 2 -a 0 -i 13 -k RTR 
- -t 15.156193445 -s 7 -d 6 -p DSR -e 76 -c 2 -a 0 -i 13 -k RTR
h -t 15.156193445 -s 7 -d 6 -p DSR -e 76 -c 2 -a 0 -i 13 -k RTR
+ -t 15.158375112 -s 21 -d 6 -p DSR -e 68 -c 2 -a 0 -i 10 -k RTR 
- -t 15.158375112 -s 21 -d 6 -p DSR -e 68 -c 2 -a 0 -i 10 -k RTR
h -t 15.158375112 -s 21 -d 6 -p DSR -e 68 -c 2 -a 0 -i 10 -k RTR
+ -t 15.159346952 -s 0 -d -1 -p cbr -e 512 -c 2 -a 0 -i 15 -k AGT 
- -t 15.159346952 -s 0 -d -1 -p cbr -e 512 -c 2 -a 0 -i 15 -k AGT
h -t 15.159346952 -s 0 -d -1 -p cbr -e 512 -c 2 -a 0 -i 15 -k AGT
+ -t 15.159346952 -s 0 -d 6 -p cbr -e 532 -c 2 -a 0 -i 15 -k RTR 
- -t 15.159346952 -s 0 -d 6 -p cbr -e 532 -c 2 -a 0 -i 15 -k RTR
h -t 15.159346952 -s 0 -d 6 -p cbr -e 532 -c 2 -a 0 -i 15 -k RTR
+ -t 15.160397348 -s 6 -d 0 -p DSR -e 68 -c 2 -a 0 -i 10 -k RTR 
- -t 15.160397348 -s 6 -d 0 -p DSR -e 68 -c 2 -a 0 -i 10 -k RTR
h -t 15.160397348 -s 6 -d 0 -p DSR -e 68 -c 2 -a 0 -i 10 -k RTR
+ -t 15.162504015 -s 6 -d 0 -p DSR -e 76 -c 2 -a 0 -i 13 -k RTR 
- -t 15.162504015 -s 6 -d 0 -p DSR -e 76 -c 2 -a 0 -i 13 -k RTR
h -t 15.162504015 -s 6 -d 0 -p DSR -e 76 -c 2 -a 0 -i 13 -k RTR
+ -t 15.168129510 -s 14 -d 10 -p DSR -e 68 -c 2 -a 0 -i 12 -k RTR 
- -t 15.168129510 -s 14 -d 10 -p DSR -e 68 -c 2 -a 0 -i 12 -k RTR
h -t 15.168129510 -s 14 -d 10 -p DSR -e 68 -c 2 -a 0 -i 12 -k RTR
+ -t 15.170600015 -s 6 -d 21 -p cbr -e 532 -c 2 -a 0 -i 15 -k RTR 
- -t 15.170600015 -s 6 -d 21 -p cbr -e 532 -c 2 -a 0 -i 15 -k RTR
h -t 15.170600015 -s 6 -d 21 -p cbr -e 532 -c 2 -a 0 -i 15 -k RTR
+ -t 15.177300429 -s 20 -d 21 -p DSR -e 68 -c 2 -a 0 -i 8 -k RTR 
- -t 15.177300429 -s 20 -d 21 -p DSR -e 68 -c 2 -a 0 -i 8 -k RTR
h -t 15.177300429 -s 20 -d 21 -p DSR -e 68 -c 2 -a 0 -i 8 -k RTR
+ -t 15.179442315 -s 21 -d 6 -p DSR -e 68 -c 2 -a 0 -i 11 -k RTR 
- -t 15.179442315 -s 21 -d 6 -p DSR -e 68 -c 2 -a 0 -i 11 -k RTR
h -t 15.179442315 -s 21 -d 6 -p DSR -e 68 -c 2 -a 0 -i 11 -k RTR
+ -t 15.181544551 -s 6 -d 0 -p DSR -e 68 -c 2 -a 0 -i 11 -k RTR 
- -t 15.181544551 -s 6 -d 0 -p DSR -e 68 -c 2 -a 0 -i 11 -k RTR
h -t 15.181544551 -s 6 -d 0 -p DSR -e 68 -c 2 -a 0 -i 11 -k RTR
+ -t 15.187378787 -s 21 -d 18 -p cbr -e 532 -c 2 -a 0 -i 15 -k RTR 
- -t 15.187378787 -s 21 -d 18 -p cbr -e 532 -c 2 -a 0 -i 15 -k RTR
h -t 15.187378787 -s 21 -d 18 -p cbr -e 532 -c 2 -a 0 -i 15 -k RTR
+ -t 15.191694592 -s 10 -d 6 -p DSR -e 68 -c 2 -a 0 -i 12 -k RTR 
- -t 15.191694592 -s 10 -d 6 -p DSR -e 68 -c 2 -a 0 -i 12 -k RTR
h -t 15.191694592 -s 10 -d 6 -p DSR -e 68 -c 2 -a 0 -i 12 -k RTR
+ -t 15.193813574 -s 10 -d 6 -p DSR -e 60 -c 2 -a 0 -i 4 -k RTR 
- -t 15.193813574 -s 10 -d 6 -p DSR -e 60 -c 2 -a 0 -i 4 -k RTR
h -t 15.193813574 -s 10 -d 6 -p DSR -e 60 -c 2 -a 0 -i 4 -k RTR
+ -t 15.195836045 -s 21 -d 6 -p DSR -e 68 -c 2 -a 0 -i 8 -k RTR 
- -t 15.195836045 -s 21 -d 6 -p DSR -e 68 -c 2 -a 0 -i 8 -k RTR
h -t 15.195836045 -s 21 -d 6 -p DSR -e 68 -c 2 -a 0 -i 8 -k RTR
r -t 15.201770281 -s 18 -d 18 -p cbr -e 512 -c 2 -a 0 -i 15 -k AGT
+ -t 15.203873263 -s 6 -d 0 -p DSR -e 68 -c 2 -a 0 -i 12 -k RTR 
- -t 15.203873263 -s 6 -d 0 -p DSR -e 68 -c 2 -a 0 -i 12 -k RTR
h -t 15.203873263 -s 6 -d 0 -p DSR -e 68 -c 2 -a 0 -i 12 -k RTR
+ -t 15.205928327 -s 0 -d -1 -p cbr -e 512 -c 2 -a 0 -i 16 -k AGT 
- -t 15.205928327 -s 0 -d -1 -p cbr -e 512 -c 2 -a 0 -i 16 -k AGT
h -t 15.205928327 -s 0 -d -1 -p cbr -e 512 -c 2 -a 0 -i 16 -k AGT
+ -t 15.205928327 -s 0 -d 6 -p cbr -e 532 -c 2 -a 0 -i 16 -k RTR 
- -t 15.205928327 -s 0 -d 6 -p cbr -e 532 -c 2 -a 0 -i 16 -k RTR
h -t 15.205928327 -s 0 -d 6 -p cbr -e 532 -c 2 -a 0 -i 16 -k RTR
+ -t 15.214029263 -s 6 -d 21 -p cbr -e 532 -c 2 -a 0 -i 16 -k RTR 
- -t 15.214029263 -s 6 -d 21 -p cbr -e 532 -c 2 -a 0 -i 16 -k RTR
h -t 15.214029263 -s 6 -d 21 -p cbr -e 532 -c 2 -a 0 -i 16 -k RTR
+ -t 15.216038034 -s 6 -d 0 -p DSR -e 60 -c 2 -a 0 -i 4 -k RTR 
- -t 15.216038034 -s 6 -d 0 -p DSR -e 60 -c 2 -a 0 -i 4 -k RTR
h -t 15.216038034 -s 6 -d 0 -p DSR -e 60 -c 2 -a 0 -i 4 -k RTR
+ -t 15.218221015 -s 6 -d 0 -p DSR -e 68 -c 2 -a 0 -i 8 -k RTR 
- -t 15.218221015 -s 6 -d 0 -p DSR -e 68 -c 2 -a 0 -i 8 -k RTR
h -t 15.218221015 -s 6 -d 0 -p DSR -e 68 -c 2 -a 0 -i 8 -k RTR
+ -t 15.224235251 -s 21 -d 18 -p cbr -e 532 -c 2 -a 0 -i 16 -k RTR 
- -t 15.224235251 -s 21 -d 18 -p cbr -e 532 -c 2 -a 0 -i 16 -k RTR
h -t 15.224235251 -s 21 -d 18 -p cbr -e 532 -c 2 -a 0 -i 16 -k RTR
r -t 15.230229487 -s 18 -d 18 -p cbr -e 512 -c 2 -a 0 -i 16 -k AGT
+ -t 15.237208552 -s 11 -d 7 -p DSR -e 68 -c 2 -a 0 -i 5 -k RTR 
- -t 15.237208552 -s 11 -d 7 -p DSR -e 68 -c 2 -a 0 -i 5 -k RTR
h -t 15.237208552 -s 11 -d 7 -p DSR -e 68 -c 2 -a 0 -i 5 -k RTR
+ -t 15.239350788 -s 7 -d 6 -p DSR -e 68 -c 2 -a 0 -i 5 -k RTR 
- -t 15.239350788 -s 7 -d 6 -p DSR -e 68 -c 2 -a 0 -i 5 -k RTR
h -t 15.239350788 -s 7 -d 6 -p DSR -e 68 -c 2 -a 0 -i 5 -k RTR
+ -t 15.241792788 -s 6 -d 0 -p DSR -e 68 -c 2 -a 0 -i 5 -k RTR 
- -t 15.241792788 -s 6 -d 0 -p DSR -e 68 -c 2 -a 0 -i 5 -k RTR
h -t 15.241792788 -s 6 -d 0 -p DSR -e 68 -c 2 -a 0 -i 5 -k RTR
+ -t 15.272775000 -s 0 -d -1 -p cbr -e 512 -c 2 -a 0 -i 17 -k AGT 
- -t 15.272775000 -s 0 -d -1 -p cbr -e 512 -c 2 -a 0 -i 17 -k AGT
h -t 15.272775000 -s 0 -d -1 -p cbr -e 512 -c 2 -a 0 -i 17 -k AGT
+ -t 15.272775000 -s 0 -d 6 -p cbr -e 532 -c 2 -a 0 -i 17 -k RTR 
- -t 15.272775000 -s 0 -d 6 -p cbr -e 532 -c 2 -a 0 -i 17 -k RTR
h -t 15.272775000 -s 0 -d 6 -p cbr -e 532 -c 2 -a 0 -i 17 -k RTR
+ -t 15.278625000 -s 6 -d 21 -p cbr -e 532 -c 2 -a 0 -i 17 -k RTR 
- -t 15.278625000 -s 6 -d 21 -p cbr -e 532 -c 2 -a 0 -i 17 -k RTR
h -t 15.278625000 -s 6 -d 21 -p cbr -e 532 -c 2 -a 0 -i 17 -k RTR
+ -t 15.284559236 -s 21 -d 18 -p cbr -e 532 -c 2 -a 0 -i 17 -k RTR 
- -t 15.284559236 -s 21 -d 18 -p cbr -e 532 -c 2 -a 0 -i 17 -k RTR
h -t 15.284559236 -s 21 -d 18 -p cbr -e 532 -c 2 -a 0 -i 17 -k RTR
r -t 15.290673472 -s 18 -d 18 -p cbr -e 512 -c 2 -a 0 -i 17 -k AGT
+ -t 15.307616322 -s 0 -d -1 -p cbr -e 512 -c 2 -a 0 -i 18 -k AGT 
- -t 15.307616322 -s 0 -d -1 -p cbr -e 512 -c 2 -a 0 -i 18 -k AGT
h -t 15.307616322 -s 0 -d -1 -p cbr -e 512 -c 2 -a 0 -i 18 -k AGT
+ -t 15.307616322 -s 0 -d 6 -p cbr -e 532 -c 2 -a 0 -i 18 -k RTR 
- -t 15.307616322 -s 0 -d 6 -p cbr -e 532 -c 2 -a 0 -i 18 -k RTR
h -t 15.307616322 -s 0 -d 6 -p cbr -e 532 -c 2 -a 0 -i 18 -k RTR
+ -t 15.313486322 -s 6 -d 21 -p cbr -e 532 -c 2 -a 0 -i 18 -k RTR 
- -t 15.313486322 -s 6 -d 21 -p cbr -e 532 -c 2 -a 0 -i 18 -k RTR
h -t 15.313486322 -s 6 -d 21 -p cbr -e 532 -c 2 -a 0 -i 18 -k RTR
+ -t 15.319300558 -s 21 -d 18 -p cbr -e 532 -c 2 -a 0 -i 18 -k RTR 
- -t 15.319300558 -s 21 -d 18 -p cbr -e 532 -c 2 -a 0 -i 18 -k RTR
h -t 15.319300558 -s 21 -d 18 -p cbr -e 532 -c 2 -a 0 -i 18 -k RTR
r -t 15.325594794 -s 18 -d 18 -p cbr -e 512 -c 2 -a 0 -i 18 -k AGT
+ -t 15.352237096 -s 0 -d -1 -p cbr -e 512 -c 2 -a 0 -i 19 -k AGT 
- -t 15.352237096 -s 0 -d -1 -p cbr -e 512 -c 2 -a 0 -i 19 -k AGT
h -t 15.352237096 -s 0 -d -1 -p cbr -e 512 -c 2 -a 0 -i 19 -k AGT
+ -t 15.352237096 -s 0 -d 6 -p cbr -e 532 -c 2 -a 0 -i 19 -k RTR 
- -t 15.352237096 -s 0 -d 6 -p cbr -e 532 -c 2 -a 0 -i 19 -k RTR
h -t 15.352237096 -s 0 -d 6 -p cbr -e 532 -c 2 -a 0 -i 19 -k RTR
+ -t 15.357867096 -s 6 -d 21 -p cbr -e 532 -c 2 -a 0 -i 19 -k RTR 
- -t 15.357867096 -s 6 -d 21 -p cbr -e 532 -c 2 -a 0 -i 19 -k RTR
h -t 15.357867096 -s 6 -d 21 -p cbr -e 532 -c 2 -a 0 -i 19 -k RTR
+ -t 15.363861332 -s 21 -d 18 -p cbr -e 532 -c 2 -a 0 -i 19 -k RTR 
- -t 15.363861332 -s 21 -d 18 -p cbr -e 532 -c 2 -a 0 -i 19 -k RTR
h -t 15.363861332 -s 21 -d 18 -p cbr -e 532 -c 2 -a 0 -i 19 -k RTR
r -t 15.369855568 -s 18 -d 18 -p cbr -e 512 -c 2 -a 0 -i 19 -k AGT
+ -t 15.381909891 -s 0 -d -1 -p cbr -e 512 -c 2 -a 0 -i 20 -k AGT 
- -t 15.381909891 -s 0 -d -1 -p cbr -e 512 -c 2 -a 0 -i 20 -k AGT
h -t 15.381909891 -s 0 -d -1 -p cbr -e 512 -c 2 -a 0 -i 20 -k AGT
+ -t 15.381909891 -s 0 -d 6 -p cbr -e 532 -c 2 -a 0 -i 20 -k RTR 
- -t 15.381909891 -s 0 -d 6 -p cbr -e 532 -c 2 -a 0 -i 20 -k RTR
h -t 15.381909891 -s 0 -d 6 -p cbr -e 532 -c 2 -a 0 -i 20 -k RTR
+ -t 15.387819891 -s 6 -d 21 -p cbr -e 532 -c 2 -a 0 -i 20 -k RTR 
- -t 15.387819891 -s 6 -d 21 -p cbr -e 532 -c 2 -a 0 -i 20 -k RTR
h -t 15.387819891 -s 6 -d 21 -p cbr -e 532 -c 2 -a 0 -i 20 -k RTR
+ -t 15.393734127 -s 21 -d 18 -p cbr -e 532 -c 2 -a 0 -i 20 -k RTR 
- -t 15.393734127 -s 21 -d 18 -p cbr -e 532 -c 2 -a 0 -i 20 -k RTR
h -t 15.393734127 -s 21 -d 18 -p cbr -e 532 -c 2 -a 0 -i 20 -k RTR
r -t 15.399728363 -s 18 -d 18 -p cbr -e 512 -c 2 -a 0 -i 20 -k AGT
+ -t 15.453103004 -s 0 -d -1 -p cbr -e 512 -c 2 -a 0 -i 21 -k AGT 
- -t 15.453103004 -s 0 -d -1 -p cbr -e 512 -c 2 -a 0 -i 21 -k AGT
h -t 15.453103004 -s 0 -d -1 -p cbr -e 512 -c 2 -a 0 -i 21 -k AGT
+ -t 15.453103004 -s 0 -d 6 -p cbr -e 532 -c 2 -a 0 -i 21 -k RTR 
- -t 15.453103004 -s 0 -d 6 -p cbr -e 532 -c 2 -a 0 -i 21 -k RTR
h -t 15.453103004 -s 0 -d 6 -p cbr -e 532 -c 2 -a 0 -i 21 -k RTR
+ -t 15.458833004 -s 6 -d 21 -p cbr -e 532 -c 2 -a 0 -i 21 -k RTR 
- -t 15.458833004 -s 6 -d 21 -p cbr -e 532 -c 2 -a 0 -i 21 -k RTR
h -t 15.458833004 -s 6 -d 21 -p cbr -e 532 -c 2 -a 0 -i 21 -k RTR
+ -t 15.464687240 -s 21 -d 18 -p cbr -e 532 -c 2 -a 0 -i 21 -k RTR 
- -t 15.464687240 -s 21 -d 18 -p cbr -e 532 -c 2 -a 0 -i 21 -k RTR
h -t 15.464687240 -s 21 -d 18 -p cbr -e 532 -c 2 -a 0 -i 21 -k RTR
r -t 15.470981476 -s 18 -d 18 -p cbr -e 512 -c 2 -a 0 -i 21 -k AGT
+ -t 15.498039676 -s 0 -d -1 -p cbr -e 512 -c 2 -a 0 -i 22 -k AGT 
- -t 15.498039676 -s 0 -d -1 -p cbr -e 512 -c 2 -a 0 -i 22 -k AGT
h -t 15.498039676 -s 0 -d -1 -p cbr -e 512 -c 2 -a 0 -i 22 -k AGT
+ -t 15.498039676 -s 0 -d 6 -p cbr -e 532 -c 2 -a 0 -i 22 -k RTR 
- -t 15.498039676 -s 0 -d 6 -p cbr -e 532 -c 2 -a 0 -i 22 -k RTR
h -t 15.498039676 -s 0 -d 6 -p cbr -e 532 -c 2 -a 0 -i 22 -k RTR
+ -t 15.503609676 -s 6 -d 21 -p cbr -e 532 -c 2 -a 0 -i 22 -k RTR 
- -t 15.503609676 -s 6 -d 21 -p cbr -e 532 -c 2 -a 0 -i 22 -k RTR
h -t 15.503609676 -s 6 -d 21 -p cbr -e 532 -c 2 -a 0 -i 22 -k RTR
+ -t 15.509363912 -s 21 -d 18 -p cbr -e 532 -c 2 -a 0 -i 22 -k RTR 
- -t 15.509363912 -s 21 -d 18 -p cbr -e 532 -c 2 -a 0 -i 22 -k RTR
h -t 15.509363912 -s 21 -d 18 -p cbr -e 532 -c 2 -a 0 -i 22 -k RTR
r -t 15.515078148 -s 18 -d 18 -p cbr -e 512 -c 2 -a 0 -i 22 -k AGT
+ -t 15.566508717 -s 0 -d -1 -p cbr -e 512 -c 2 -a 0 -i 23 -k AGT 
- -t 15.566508717 -s 0 -d -1 -p cbr -e 512 -c 2 -a 0 -i 23 -k AGT
h -t 15.566508717 -s 0 -d -1 -p cbr -e 512 -c 2 -a 0 -i 23 -k AGT
+ -t 15.566508717 -s 0 -d 6 -p cbr -e 532 -c 2 -a 0 -i 23 -k RTR 
- -t 15.566508717 -s 0 -d 6 -p cbr -e 532 -c 2 -a 0 -i 23 -k RTR
h -t 15.566508717 -s 0 -d 6 -p cbr -e 532 -c 2 -a 0 -i 23 -k RTR
+ -t 15.571958717 -s 6 -d 21 -p cbr -e 532 -c 2 -a 0 -i 23 -k RTR 
- -t 15.571958717 -s 6 -d 21 -p cbr -e 532 -c 2 -a 0 -i 23 -k RTR
h -t 15.571958717 -s 6 -d 21 -p cbr -e 532 -c 2 -a 0 -i 23 -k RTR
+ -t 15.577832953 -s 21 -d 18 -p cbr -e 532 -c 2 -a 0 -i 23 -k RTR 
- -t 15.577832953 -s 21 -d 18 -p cbr -e 532 -c 2 -a 0 -i 23 -k RTR
h -t 15.577832953 -s 21 -d 18 -p cbr -e 532 -c 2 -a 0 -i 23 -k RTR
r -t 15.583987190 -s 18 -d 18 -p cbr -e 512 -c 2 -a 0 -i 23 -k AGT
+ -t 15.639387068 -s 0 -d -1 -p cbr -e 512 -c 2 -a 0 -i 24 -k AGT 
- -t 15.639387068 -s 0 -d -1 -p cbr -e 512 -c 2 -a 0 -i 24 -k AGT
h -t 15.639387068 -s 0 -d -1 -p cbr -e 512 -c 2 -a 0 -i 24 -k AGT
+ -t 15.639387068 -s 0 -d 6 -p cbr -e 532 -c 2 -a 0 -i 24 -k RTR 
- -t 15.639387068 -s 0 -d 6 -p cbr -e 532 -c 2 -a 0 -i 24 -k RTR
h -t 15.639387068 -s 0 -d 6 -p cbr -e 532 -c 2 -a 0 -i 24 -k RTR
+ -t 15.645277068 -s 6 -d 21 -p cbr -e 532 -c 2 -a 0 -i 24 -k RTR 
- -t 15.645277068 -s 6 -d 21 -p cbr -e 532 -c 2 -a 0 -i 24 -k RTR
h -t 15.645277068 -s 6 -d 21 -p cbr -e 532 -c 2 -a 0 -i 24 -k RTR
+ -t 15.651371304 -s 21 -d 18 -p cbr -e 532 -c 2 -a 0 -i 24 -k RTR 
- -t 15.651371304 -s 21 -d 18 -p cbr -e 532 -c 2 -a 0 -i 24 -k RTR
h -t 15.651371304 -s 21 -d 18 -p cbr -e 532 -c 2 -a 0 -i 24 -k RTR
r -t 15.657565540 -s 18 -d 18 -p cbr -e 512 -c 2 -a 0 -i 24 -k AGT
+ -t 15.688801800 -s 0 -d -1 -p cbr -e 512 -c 2 -a 0 -i 25 -k AGT 
- -t 15.688801800 -s 0 -d -1 -p cbr -e 512 -c 2 -a 0 -i 25 -k AGT
h -t 15.688801800 -s 0 -d -1 -p cbr -e 512 -c 2 -a 0 -i 25 -k AGT
+ -t 15.688801800 -s 0 -d 6 -p cbr -e 532 -c 2 -a 0 -i 25 -k RTR 
- -t 15.688801800 -s 0 -d 6 -p cbr -e 532 -c 2 -a 0 -i 25 -k RTR
h -t 15.688801800 -s 0 -d 6 -p cbr -e 532 -c 2 -a 0 -i 25 -k RTR
+ -t 15.694251800 -s 6 -d 21 -p cbr -e 532 -c 2 -a 0 -i 25 -k RTR 
- -t 15.694251800 -s 6 -d 21 -p cbr -e 532 -c 2 -a 0 -i 25 -k RTR
h -t 15.694251800 -s 6 -d 21 -p cbr -e 532 -c 2 -a 0 -i 25 -k RTR
+ -t 15.700366037 -s 21 -d 18 -p cbr -e 532 -c 2 -a 0 -i 25 -k RTR 
- -t 15.700366037 -s 21 -d 18 -p cbr -e 532 -c 2 -a 0 -i 25 -k RTR
h -t 15.700366037 -s 21 -d 18 -p cbr -e 532 -c 2 -a 0 -i 25 -k RTR
r -t 15.706620273 -s 18 -d 18 -p cbr -e 512 -c 2 -a 0 -i 25 -k AGT
+ -t 15.750778257 -s 0 -d -1 -p cbr -e 512 -c 2 -a 0 -i 26 -k AGT 
- -t 15.750778257 -s 0 -d -1 -p cbr -e 512 -c 2 -a 0 -i 26 -k AGT
h -t 15.750778257 -s 0 -d -1 -p cbr -e 512 -c 2 -a 0 -i 26 -k AGT
+ -t 15.750778257 -s 0 -d 6 -p cbr -e 532 -c 2 -a 0 -i 26 -k RTR 
- -t 15.750778257 -s 0 -d 6 -p cbr -e 532 -c 2 -a 0 -i 26 -k RTR
h -t 15.750778257 -s 0 -d 6 -p cbr -e 532 -c 2 -a 0 -i 26 -k RTR
+ -t 15.756788257 -s 6 -d 21 -p cbr -e 532 -c 2 -a 0 -i 26 -k RTR 
- -t 15.756788257 -s 6 -d 21 -p cbr -e 532 -c 2 -a 0 -i 26 -k RTR
h -t 15.756788257 -s 6 -d 21 -p cbr -e 532 -c 2 -a 0 -i 26 -k RTR
+ -t 15.763022493 -s 21 -d 18 -p cbr -e 532 -c 2 -a 0 -i 26 -k RTR 
- -t 15.763022493 -s 21 -d 18 -p cbr -e 532 -c 2 -a 0 -i 26 -k RTR
h -t 15.763022493 -s 21 -d 18 -p cbr -e 532 -c 2 -a 0 -i 26 -k RTR
r -t 15.768836729 -s 18 -d 18 -p cbr -e 512 -c 2 -a 0 -i 26 -k AGT
+ -t 15.819187436 -s 0 -d -1 -p cbr -e 512 -c 2 -a 0 -i 27 -k AGT 
- -t 15.819187436 -s 0 -d -1 -p cbr -e 512 -c 2 -a 0 -i 27 -k AGT
h -t 15.819187436 -s 0 -d -1 -p cbr -e 512 -c 2 -a 0 -i 27 -k AGT
+ -t 15.819187436 -s 0 -d 6 -p cbr -e 532 -c 2 -a 0 -i 27 -k RTR 
- -t 15.819187436 -s 0 -d 6 -p cbr -e 532 -c 2 -a 0 -i 27 -k RTR
h -t 15.819187436 -s 0 -d 6 -p cbr -e 532 -c 2 -a 0 -i 27 -k RTR
+ -t 15.825217436 -s 6 -d 21 -p cbr -e 532 -c 2 -a 0 -i 27 -k RTR 
- -t 15.825217436 -s 6 -d 21 -p cbr -e 532 -c 2 -a 0 -i 27 -k RTR
h -t 15.825217436 -s 6 -d 21 -p cbr -e 532 -c 2 -a 0 -i 27 -k RTR
+ -t 15.831111672 -s 21 -d 18 -p cbr -e 532 -c 2 -a 0 -i 27 -k RTR 
- -t 15.831111672 -s 21 -d 18 -p cbr -e 532 -c 2 -a 0 -i 27 -k RTR
h -t 15.831111672 -s 21 -d 18 -p cbr -e 532 -c 2 -a 0 -i 27 -k RTR
r -t 15.837125908 -s 18 -d 18 -p cbr -e 512 -c 2 -a 0 -i 27 -k AGT
+ -t 15.857026836 -s 0 -d -1 -p cbr -e 512 -c 2 -a 0 -i 28 -k AGT 
- -t 15.857026836 -s 0 -d -1 -p cbr -e 512 -c 2 -a 0 -i 28 -k AGT
h -t 15.857026836 -s 0 -d -1 -p cbr -e 512 -c 2 -a 0 -i 28 -k AGT
+ -t 15.857026836 -s 0 -d 6 -p cbr -e 532 -c 2 -a 0 -i 28 -k RTR 
- -t 15.857026836 -s 0 -d 6 -p cbr -e 532 -c 2 -a 0 -i 28 -k RTR
h -t 15.857026836 -s 0 -d 6 -p cbr -e 532 -c 2 -a 0 -i 28 -k RTR
+ -t 15.862956836 -s 6 -d 21 -p cbr -e 532 -c 2 -a 0 -i 28 -k RTR 
- -t 15.862956836 -s 6 -d 21 -p cbr -e 532 -c 2 -a 0 -i 28 -k RTR
h -t 15.862956836 -s 6 -d 21 -p cbr -e 532 -c 2 -a 0 -i 28 -k RTR
+ -t 15.868811072 -s 21 -d 18 -p cbr -e 532 -c 2 -a 0 -i 28 -k RTR 
- -t 15.868811072 -s 21 -d 18 -p cbr -e 532 -c 2 -a 0 -i 28 -k RTR
h -t 15.868811072 -s 21 -d 18 -p cbr -e 532 -c 2 -a 0 -i 28 -k RTR
r -t 15.875025308 -s 18 -d 18 -p cbr -e 512 -c 2 -a 0 -i 28 -k AGT
+ -t 15.906930395 -s 0 -d -1 -p cbr -e 512 -c 2 -a 0 -i 29 -k AGT 
- -t 15.906930395 -s 0 -d -1 -p cbr -e 512 -c 2 -a 0 -i 29 -k AGT
h -t 15.906930395 -s 0 -d -1 -p cbr -e 512 -c 2 -a 0 -i 29 -k AGT
+ -t 15.906930395 -s 0 -d 6 -p cbr -e 532 -c 2 -a 0 -i 29 -k RTR 
- -t 15.906930395 -s 0 -d 6 -p cbr -e 532 -c 2 -a 0 -i 29 -k RTR
h -t 15.906930395 -s 0 -d 6 -p cbr -e 532 -c 2 -a 0 -i 29 -k RTR
+ -t 15.912540395 -s 6 -d 21 -p cbr -e 532 -c 2 -a 0 -i 29 -k RTR 
- -t 15.912540395 -s 6 -d 21 -p cbr -e 532 -c 2 -a 0 -i 29 -k RTR
h -t 15.912540395 -s 6 -d 21 -p cbr -e 532 -c 2 -a 0 -i 29 -k RTR
+ -t 15.918734631 -s 21 -d 18 -p cbr -e 532 -c 2 -a 0 -i 29 -k RTR 
- -t 15.918734631 -s 21 -d 18 -p cbr -e 532 -c 2 -a 0 -i 29 -k RTR
h -t 15.918734631 -s 21 -d 18 -p cbr -e 532 -c 2 -a 0 -i 29 -k RTR