Sconfig 0.00000 tap: on snoop: rts? on errs? on
Sconfig 0.00000 salvage: on !bd replies? on
Sconfig 0.00000 grat error: on grat reply: on
Sconfig 0.00000 $reply for props: on ring 0 search: on
Sconfig 0.00000 using MOBICACHE
s 15.000000000 _0_ AGT  --- 0 cbr 512 [0 0 0 0] ------- [0:0 7:0 32 0] [0] 0 0
r 15.000000000 _0_ RTR  --- 0 cbr 512 [0 0 0 0] ------- [0:0 7:0 32 0] [0] 0 0
s 15.005035754 _0_ RTR  --- 1 DSR 32 [0 0 0 0] ------- [0:255 7:255 32 0] 1 [1 1] [0 1 0 0->0] [0 0 0 0->0]
r 15.006008225 _3_ RTR  --- 1 DSR 32 [0 ffffffff 0 800] ------- [0:255 7:255 32 0] 1 [1 1] [0 1 0 0->0] [0 0 0 0->0]
r 15.006008421 _5_ RTR  --- 1 DSR 32 [0 ffffffff 0 800] ------- [0:255 7:255 32 0] 1 [1 1] [0 1 0 0->0] [0 0 0 0->0]
r 15.006008421 _1_ RTR  --- 1 DSR 32 [0 ffffffff 0 800] ------- [0:255 7:255 32 0] 1 [1 1] [0 1 0 0->0] [0 0 0 0->0]
s 15.054106129 _0_ AGT  --- 3 cbr 512 [0 0 0 0] ------- [0:0 7:0 32 0] [1] 0 0
r 15.054106129 _0_ RTR  --- 3 cbr 512 [0 0 0 0] ------- [0:0 7:0 32 0] [1] 0 0
s 15.058229233 _0_ RTR  --- 4 DSR 32 [0 0 0 0] ------- [0:255 7:255 32 0] 1 [1 2] [0 2 0 0->16] [0 0 0 0->0]
r 15.059601705 _3_ RTR  --- 4 DSR 32 [0 ffffffff 0 800] ------- [0:255 7:255 32 0] 1 [1 2] [0 2 0 0->16] [0 0 0 0->0]
r 15.059601900 _5_ RTR  --- 4 DSR 32 [0 ffffffff 0 800] ------- [0:255 7:255 32 0] 1 [1 2] [0 2 0 0->16] [0 0 0 0->0]
r 15.059601900 _1_ RTR  --- 4 DSR 32 [0 ffffffff 0 800] ------- [0:255 7:255 32 0] 1 [1 2] [0 2 0 0->16] [0 0 0 0->0]
f 15.059817641 _1_ RTR  --- 4 DSR 48 [0 ffffffff 0 800] ------- [0:255 7:255 32 0] 2 [1 2] [0 2 0 0->16] [0 0 0 0->0]
f 15.060371971 _5_ RTR  --- 4 DSR 48 [0 ffffffff 0 800] ------- [0:255 7:255 32 0] 2 [1 2] [0 2 0 0->16] [0 0 0 0->0]
r 15.060838113 _3_ RTR  --- 4 DSR 48 [0 ffffffff 1 800] ------- [0:255 7:255 32 0] 2 [1 2] [0 2 0 0->16] [0 0 0 0->0]
r 15.060838113 _4_ RTR  --- 4 DSR 48 [0 ffffffff 1 800] ------- [0:255 7:255 32 0] 2 [1 2] [0 2 0 0->16] [0 0 0 0->0]
r 15.060838308 _0_ RTR  --- 4 DSR 48 [0 ffffffff 1 800] ------- [0:255 7:255 32 0] 2 [1 2] [0 2 0 0->16] [0 0 0 0->0]
r 15.060838308 _6_ RTR  --- 4 DSR 48 [0 ffffffff 1 800] ------- [0:255 7:255 32 0] 2 [1 2] [0 2 0 0->16] [0 0 0 0->0]
r 15.060838308 _2_ RTR  --- 4 DSR 48 [0 ffffffff 1 800] ------- [0:255 7:255 32 0] 2 [1 2] [0 2 0 0->16] [0 0 0 0->0]
r 15.062313055 _3_ RTR  --- 4 DSR 48 [0 ffffffff 5 800] ------- [0:255 7:255 32 0] 2 [1 2] [0 2 0 0->16] [0 0 0 0->0]
r 15.062313251 _0_ RTR  --- 4 DSR 48 [0 ffffffff 5 800] ------- [0:255 7:255 32 0] 2 [1 2] [0 2 0 0->16] [0 0 0 0->0]
r 15.062313251 _6_ RTR  --- 4 DSR 48 [0 ffffffff 5 800] ------- [0:255 7:255 32 0] 2 [1 2] [0 2 0 0->16] [0 0 0 0->0]
f 15.063801591 _4_ RTR  --- 4 DSR 68 [0 ffffffff 1 800] ------- [0:255 7:255 32 0] 3 [1 2] [0 2 0 0->16] [0 0 0 0->0]
r 15.064982062 _6_ RTR  --- 4 DSR 68 [0 ffffffff 4 800] ------- [0:255 7:255 32 0] 3 [1 2] [0 2 0 0->16] [0 0 0 0->0]
r 15.064982062 _1_ RTR  --- 4 DSR 68 [0 ffffffff 4 800] ------- [0:255 7:255 32 0] 3 [1 2] [0 2 0 0->16] [0 0 0 0->0]
r 15.064982062 _2_ RTR  --- 4 DSR 68 [0 ffffffff 4 800] ------- [0:255 7:255 32 0] 3 [1 2] [0 2 0 0->16] [0 0 0 0->0]
r 15.064982062 _7_ RTR  --- 4 DSR 68 [0 ffffffff 4 800] ------- [0:255 7:255 32 0] 3 [1 2] [0 2 0 0->16] [0 0 0 0->0]
r 15.064982258 _3_ RTR  --- 4 DSR 68 [0 ffffffff 4 800] ------- [0:255 7:255 32 0] 3 [1 2] [0 2 0 0->16] [0 0 0 0->0]
f 15.065403592 _6_ RTR  --- 4 DSR 68 [0 ffffffff 1 800] ------- [0:255 7:255 32 0] 3 [1 2] [0 2 0 0->16] [0 0 0 0->0]
s 15.065764055 _7_ RTR  --- 5 DSR 60 [0 0 0 0] ------- [7:255 0:255 254 4] 4 [0 2] [1 2 4 0->7] [0 0 0 0->0]
r 15.066704063 _3_ RTR  --- 4 DSR 68 [0 ffffffff 6 800] ------- [0:255 7:255 32 0] 3 [1 2] [0 2 0 0->16] [0 0 0 0->0]
r 15.066704063 _4_ RTR  --- 4 DSR 68 [0 ffffffff 6 800] ------- [0:255 7:255 32 0] 3 [1 2] [0 2 0 0->16] [0 0 0 0->0]
r 15.066704258 _1_ RTR  --- 4 DSR 68 [0 ffffffff 6 800] ------- [0:255 7:255 32 0] 3 [1 2] [0 2 0 0->16] [0 0 0 0->0]
r 15.066704258 _5_ RTR  --- 4 DSR 68 [0 ffffffff 6 800] ------- [0:255 7:255 32 0] 3 [1 2] [0 2 0 0->16] [0 0 0 0->0]
r 15.066704258 _7_ RTR  --- 4 DSR 68 [0 ffffffff 6 800] ------- [0:255 7:255 32 0] 3 [1 2] [0 2 0 0->16] [0 0 0 0->0]
f 15.066816146 _2_ RTR  --- 4 DSR 68 [0 ffffffff 1 800] ------- [0:255 7:255 32 0] 3 [1 2] [0 2 0 0->16] [0 0 0 0->0]
f 15.067894848 _3_ RTR  --- 4 DSR 48 [0 ffffffff 0 800] ------- [0:255 7:255 32 0] 2 [1 2] [0 2 0 0->16] [0 0 0 0->0]
r 15.068647673 _4_ RTR  --- 5 DSR 60 [13a 4 7 800] ------- [7:255 0:255 254 4] 4 [0 2] [1 2 4 0->7] [0 0 0 0->0]
f 15.068647673 _4_ RTR  --- 5 DSR 60 [13a 4 7 800] ------- [7:255 0:255 253 1] 4 [0 2] [1 2 4 0->7] [0 0 0 0->0]
r 15.070252615 _4_ RTR  --- 4 DSR 68 [0 ffffffff 2 800] ------- [0:255 7:255 32 0] 3 [1 2] [0 2 0 0->16] [0 0 0 0->0]
r 15.070252811 _1_ RTR  --- 4 DSR 68 [0 ffffffff 2 800] ------- [0:255 7:255 32 0] 3 [1 2] [0 2 0 0->16] [0 0 0 0->0]
r 15.070252811 _7_ RTR  --- 4 DSR 68 [0 ffffffff 2 800] ------- [0:255 7:255 32 0] 3 [1 2] [0 2 0 0->16] [0 0 0 0->0]
s 15.070947705 _7_ RTR  --- 6 DSR 60 [0 0 0 0] ------- [7:255 0:255 254 6] 4 [0 2] [1 2 4 0->7] [0 0 0 0->0]
r 15.071916030 _1_ RTR  --- 5 DSR 60 [13a 1 4 800] ------- [7:255 0:255 253 1] 4 [0 2] [1 2 4 0->7] [0 0 0 0->0]
f 15.071916030 _1_ RTR  --- 5 DSR 60 [13a 1 4 800] ------- [7:255 0:255 252 0] 4 [0 2] [1 2 4 0->7] [0 0 0 0->0]
r 15.073240972 _5_ RTR  --- 4 DSR 48 [0 ffffffff 3 800] ------- [0:255 7:255 32 0] 2 [1 2] [0 2 0 0->16] [0 0 0 0->0]
r 15.073240972 _0_ RTR  --- 4 DSR 48 [0 ffffffff 3 800] ------- [0:255 7:255 32 0] 2 [1 2] [0 2 0 0->16] [0 0 0 0->0]
r 15.073240972 _1_ RTR  --- 4 DSR 48 [0 ffffffff 3 800] ------- [0:255 7:255 32 0] 2 [1 2] [0 2 0 0->16] [0 0 0 0->0]
r 15.073240972 _6_ RTR  --- 4 DSR 48 [0 ffffffff 3 800] ------- [0:255 7:255 32 0] 2 [1 2] [0 2 0 0->16] [0 0 0 0->0]
r 15.073241168 _4_ RTR  --- 4 DSR 48 [0 ffffffff 3 800] ------- [0:255 7:255 32 0] 2 [1 2] [0 2 0 0->16] [0 0 0 0->0]
r 15.075224972 _0_ RTR  --- 5 DSR 60 [13a 0 1 800] ------- [7:255 0:255 252 0] 4 [0 2] [1 2 4 0->7] [0 0 0 0->0]
SFESTs 15.075224972 _0_ 0 [0 -> 7] 1(1) to 1 [0 |1 4 7 ]
SFESTs 15.075224972 _0_ 3 [0 -> 7] 1(1) to 1 [0 |1 4 7 ]
s 15.075224972 _0_ RTR  --- 0 cbr 556 [0 0 0 0] ------- [0:0 7:0 32 1] [0] 0 0
s 15.076510052 _7_ RTR  --- 9 DSR 60 [0 0 0 0] ------- [7:255 0:255 254 2] 4 [0 2] [1 2 4 0->7] [0 0 0 0->0]
r 15.081370972 _1_ RTR  --- 0 cbr 556 [13a 1 0 800] ------- [0:0 7:0 32 1] [0] 1 0
f 15.081370972 _1_ RTR  --- 0 cbr 556 [13a 1 0 800] ------- [0:0 7:0 31 4] [0] 1 0
r 15.087816387 _4_ RTR  --- 0 cbr 556 [13a 4 1 800] ------- [0:0 7:0 31 4] [0] 2 0
f 15.087816387 _4_ RTR  --- 0 cbr 556 [13a 4 1 800] ------- [0:0 7:0 30 7] [0] 2 0
r 15.094161801 _7_ RTR  --- 0 cbr 556 [13a 7 4 800] ------- [0:0 7:0 30 7] [0] 3 0
r 15.094161801 _7_ AGT  --- 0 cbr 512 [13a 7 4 800] ------- [0:0 7:0 30 7] [0] 3 0
r 15.096139801 _6_ RTR  --- 6 DSR 60 [13a 6 7 800] ------- [7:255 0:255 254 6] 4 [0 2] [1 2 4 0->7] [0 0 0 0->0]
f 15.096139801 _6_ RTR  --- 6 DSR 60 [13a 6 7 800] ------- [7:255 0:255 253 1] 4 [0 2] [1 2 4 0->7] [0 0 0 0->0]
s 15.097912575 _0_ AGT  --- 10 cbr 512 [0 0 0 0] ------- [0:0 7:0 32 0] [2] 0 0
r 15.097912575 _0_ RTR  --- 10 cbr 512 [0 0 0 0] ------- [0:0 7:0 32 0] [2] 0 0
SFESTs 15.097912575 _0_ 10 [0 -> 7] 1(1) to 1 [0 |1 4 7 ]
s 15.097912575 _0_ RTR  --- 10 cbr 556 [0 0 0 0] ------- [0:0 7:0 32 1] [2] 0 0
r 15.098398468 _2_ RTR  --- 9 DSR 60 [13a 2 7 800] ------- [7:255 0:255 254 2] 4 [0 2] [1 2 4 0->7] [0 0 0 0->0]
f 15.098398468 _2_ RTR  --- 9 DSR 60 [13a 2 7 800] ------- [7:255 0:255 253 1] 4 [0 2] [1 2 4 0->7] [0 0 0 0->0]
r 15.100476468 _1_ RTR  --- 9 DSR 60 [13a 1 2 800] ------- [7:255 0:255 253 1] 4 [0 2] [1 2 4 0->7] [0 0 0 0->0]
f 15.100476468 _1_ RTR  --- 9 DSR 60 [13a 1 2 800] ------- [7:255 0:255 252 0] 4 [0 2] [1 2 4 0->7] [0 0 0 0->0]
r 15.102414468 _0_ RTR  --- 9 DSR 60 [13a 0 1 800] ------- [7:255 0:255 252 0] 4 [0 2] [1 2 4 0->7] [0 0 0 0->0]
s 15.105224972 _0_ RTR  --- 3 cbr 556 [0 0 0 0] ------- [0:0 7:0 32 1] [1] 0 0
r 15.108600468 _1_ RTR  --- 10 cbr 556 [13a 1 0 800] ------- [0:0 7:0 32 1] [2] 1 0
f 15.108600468 _1_ RTR  --- 10 cbr 556 [13a 1 0 800] ------- [0:0 7:0 31 4] [2] 1 0
r 15.110728744 _1_ RTR  --- 6 DSR 60 [13a 1 6 800] ------- [7:255 0:255 253 1] 4 [0 2] [1 2 4 0->7] [0 0 0 0->0]
f 15.110728744 _1_ RTR  --- 6 DSR 60 [13a 1 6 800] ------- [7:255 0:255 252 0] 4 [0 2] [1 2 4 0->7] [0 0 0 0->0]
r 15.116965020 _1_ RTR  --- 3 cbr 556 [13a 1 0 800] ------- [0:0 7:0 32 1] [1] 1 0
f 15.116965020 _1_ RTR  --- 3 cbr 556 [13a 1 0 800] ------- [0:0 7:0 31 4] [1] 1 0
r 15.122930434 _4_ RTR  --- 10 cbr 556 [13a 4 1 800] ------- [0:0 7:0 31 4] [2] 2 0
f 15.122930434 _4_ RTR  --- 10 cbr 556 [13a 4 1 800] ------- [0:0 7:0 30 7] [2] 2 0
r 15.129095848 _7_ RTR  --- 10 cbr 556 [13a 7 4 800] ------- [0:0 7:0 30 7] [2] 3 0
r 15.129095848 _7_ AGT  --- 10 cbr 512 [13a 7 4 800] ------- [0:0 7:0 30 7] [2] 3 0
r 15.131558791 _0_ RTR  --- 6 DSR 60 [13a 0 1 800] ------- [7:255 0:255 252 0] 4 [0 2] [1 2 4 0->7] [0 0 0 0->0]
r 15.137524872 _4_ RTR  --- 3 cbr 556 [13a 4 1 800] ------- [0:0 7:0 31 4] [1] 2 0
f 15.137524872 _4_ RTR  --- 3 cbr 556 [13a 4 1 800] ------- [0:0 7:0 30 7] [1] 2 0
r 15.143950286 _7_ RTR  --- 3 cbr 556 [13a 7 4 800] ------- [0:0 7:0 30 7] [1] 3 0
r 15.143950286 _7_ AGT  --- 3 cbr 512 [13a 7 4 800] ------- [0:0 7:0 30 7] [1] 3 0
s 15.168283840 _0_ AGT  --- 11 cbr 512 [0 0 0 0] ------- [0:0 7:0 32 0] [3] 0 0
r 15.168283840 _0_ RTR  --- 11 cbr 512 [0 0 0 0] ------- [0:0 7:0 32 0] [3] 0 0
SFs 15.168283840 _0_ 11 [0 -> 7] 1(0) to 1 
s 15.168283840 _0_ RTR  --- 11 cbr 532 [0 0 0 0] ------- [0:0 7:0 32 1] [3] 0 0
r 15.173893840 _1_ RTR  --- 11 cbr 532 [13a 1 0 800] ------- [0:0 7:0 32 1] [3] 1 0
SFf 15.173893840 _1_ 11 [0 -> 7] 1 to 4
f 15.173893840 _1_ RTR  --- 11 cbr 532 [13a 1 0 800] ------- [0:0 7:0 31 4] [3] 1 0
r 15.180067254 _4_ RTR  --- 11 cbr 532 [13a 4 1 800] ------- [0:0 7:0 31 4] [3] 2 0
SFf 15.180067254 _4_ 11 [0 -> 7] 1 to 7
f 15.180067254 _4_ RTR  --- 11 cbr 532 [13a 4 1 800] ------- [0:0 7:0 30 7] [3] 2 0
r 15.186120669 _7_ RTR  --- 11 cbr 532 [13a 7 4 800] ------- [0:0 7:0 30 7] [3] 3 0
r 15.186120669 _7_ AGT  --- 11 cbr 512 [13a 7 4 800] ------- [0:0 7:0 30 7] [3] 3 0
s 15.200564597 _0_ AGT  --- 12 cbr 512 [0 0 0 0] ------- [0:0 7:0 32 0] [4] 0 0
r 15.200564597 _0_ RTR  --- 12 cbr 512 [0 0 0 0] ------- [0:0 7:0 32 0] [4] 0 0
SFs 15.200564597 _0_ 12 [0 -> 7] 1(0) to 1 
s 15.200564597 _0_ RTR  --- 12 cbr 532 [0 0 0 0] ------- [0:0 7:0 32 1] [4] 0 0
r 15.206434597 _1_ RTR  --- 12 cbr 532 [13a 1 0 800] ------- [0:0 7:0 32 1] [4] 1 0
SFf 15.206434597 _1_ 12 [0 -> 7] 1 to 4
f 15.206434597 _1_ RTR  --- 12 cbr 532 [13a 1 0 800] ------- [0:0 7:0 31 4] [4] 1 0
r 15.212348011 _4_ RTR  --- 12 cbr 532 [13a 4 1 800] ------- [0:0 7:0 31 4] [4] 2 0
SFf 15.212348011 _4_ 12 [0 -> 7] 1 to 7
f 15.212348011 _4_ RTR  --- 12 cbr 532 [13a 4 1 800] ------- [0:0 7:0 30 7] [4] 2 0
r 15.218401425 _7_ RTR  --- 12 cbr 532 [13a 7 4 800] ------- [0:0 7:0 30 7] [4] 3 0
r 15.218401425 _7_ AGT  --- 12 cbr 512 [13a 7 4 800] ------- [0:0 7:0 30 7] [4] 3 0
s 15.262183406 _0_ AGT  --- 13 cbr 512 [0 0 0 0] ------- [0:0 7:0 32 0] [5] 0 0
r 15.262183406 _0_ RTR  --- 13 cbr 512 [0 0 0 0] ------- [0:0 7:0 32 0] [5] 0 0
SFs 15.262183406 _0_ 13 [0 -> 7] 1(0) to 1 
s 15.262183406 _0_ RTR  --- 13 cbr 532 [0 0 0 0] ------- [0:0 7:0 32 1] [5] 0 0
r 15.267693406 _1_ RTR  --- 13 cbr 532 [13a 1 0 800] ------- [0:0 7:0 32 1] [5] 1 0
SFf 15.267693406 _1_ 13 [0 -> 7] 1 to 4
f 15.267693406 _1_ RTR  --- 13 cbr 532 [13a 1 0 800] ------- [0:0 7:0 31 4] [5] 1 0
r 15.273626820 _4_ RTR  --- 13 cbr 532 [13a 4 1 800] ------- [0:0 7:0 31 4] [5] 2 0
SFf 15.273626820 _4_ 13 [0 -> 7] 1 to 7
f 15.273626820 _4_ RTR  --- 13 cbr 532 [13a 4 1 800] ------- [0:0 7:0 30 7] [5] 2 0
r 15.279720234 _7_ RTR  --- 13 cbr 532 [13a 7 4 800] ------- [0:0 7:0 30 7] [5] 3 0
r 15.279720234 _7_ AGT  --- 13 cbr 512 [13a 7 4 800] ------- [0:0 7:0 30 7] [5] 3 0
s 15.316079111 _0_ AGT  --- 14 cbr 512 [0 0 0 0] ------- [0:0 7:0 32 0] [6] 0 0
r 15.316079111 _0_ RTR  --- 14 cbr 512 [0 0 0 0] ------- [0:0 7:0 32 0] [6] 0 0
SFs 15.316079111 _0_ 14 [0 -> 7] 1(0) to 1 
s 15.316079111 _0_ RTR  --- 14 cbr 532 [0 0 0 0] ------- [0:0 7:0 32 1] [6] 0 0
r 15.321929111 _1_ RTR  --- 14 cbr 532 [13a 1 0 800] ------- [0:0 7:0 32 1] [6] 1 0
SFf 15.321929111 _1_ 14 [0 -> 7] 1 to 4
f 15.321929111 _1_ RTR  --- 14 cbr 532 [13a 1 0 800] ------- [0:0 7:0 31 4] [6] 1 0
r 15.327882525 _4_ RTR  --- 14 cbr 532 [13a 4 1 800] ------- [0:0 7:0 31 4] [6] 2 0
SFf 15.327882525 _4_ 14 [0 -> 7] 1 to 7
f 15.327882525 _4_ RTR  --- 14 cbr 532 [13a 4 1 800] ------- [0:0 7:0 30 7] [6] 2 0
r 15.333675939 _7_ RTR  --- 14 cbr 532 [13a 7 4 800] ------- [0:0 7:0 30 7] [6] 3 0
r 15.333675939 _7_ AGT  --- 14 cbr 512 [13a 7 4 800] ------- [0:0 7:0 30 7] [6] 3 0
s 15.371144682 _0_ AGT  --- 15 cbr 512 [0 0 0 0] ------- [0:0 7:0 32 0] [7] 0 0
r 15.371144682 _0_ RTR  --- 15 cbr 512 [0 0 0 0] ------- [0:0 7:0 32 0] [7] 0 0
SFs 15.371144682 _0_ 15 [0 -> 7] 1(0) to 1 
s 15.371144682 _0_ RTR  --- 15 cbr 532 [0 0 0 0] ------- [0:0 7:0 32 1] [7] 0 0
r 15.376934682 _1_ RTR  --- 15 cbr 532 [13a 1 0 800] ------- [0:0 7:0 32 1] [7] 1 0
SFf 15.376934682 _1_ 15 [0 -> 7] 1 to 4
f 15.376934682 _1_ RTR  --- 15 cbr 532 [13a 1 0 800] ------- [0:0 7:0 31 4] [7] 1 0
r 15.383068096 _4_ RTR  --- 15 cbr 532 [13a 4 1 800] ------- [0:0 7:0 31 4] [7] 2 0
SFf 15.383068096 _4_ 15 [0 -> 7] 1 to 7
f 15.383068096 _4_ RTR  --- 15 cbr 532 [13a 4 1 800] ------- [0:0 7:0 30 7] [7] 2 0
r 15.389041510 _7_ RTR  --- 15 cbr 532 [13a 7 4 800] ------- [0:0 7:0 30 7] [7] 3 0
r 15.389041510 _7_ AGT  --- 15 cbr 512 [13a 7 4 800] ------- [0:0 7:0 30 7] [7] 3 0
s 15.416838116 _0_ AGT  --- 16 cbr 512 [0 0 0 0] ------- [0:0 7:0 32 0] [8] 0 0
r 15.416838116 _0_ RTR  --- 16 cbr 512 [0 0 0 0] ------- [0:0 7:0 32 0] [8] 0 0
SFs 15.416838116 _0_ 16 [0 -> 7] 1(0) to 1 
s 15.416838116 _0_ RTR  --- 16 cbr 532 [0 0 0 0] ------- [0:0 7:0 32 1] [8] 0 0
r 15.422568116 _1_ RTR  --- 16 cbr 532 [13a 1 0 800] ------- [0:0 7:0 32 1] [8] 1 0
SFf 15.422568116 _1_ 16 [0 -> 7] 1 to 4
f 15.422568116 _1_ RTR  --- 16 cbr 532 [13a 1 0 800] ------- [0:0 7:0 31 4] [8] 1 0
r 15.428741531 _4_ RTR  --- 16 cbr 532 [13a 4 1 800] ------- [0:0 7:0 31 4] [8] 2 0
SFf 15.428741531 _4_ 16 [0 -> 7] 1 to 7
f 15.428741531 _4_ RTR  --- 16 cbr 532 [13a 4 1 800] ------- [0:0 7:0 30 7] [8] 2 0
r 15.434854945 _7_ RTR  --- 16 cbr 532 [13a 7 4 800] ------- [0:0 7:0 30 7] [8] 3 0
r 15.434854945 _7_ AGT  --- 16 cbr 512 [13a 7 4 800] ------- [0:0 7:0 30 7] [8] 3 0
s 15.490048253 _0_ AGT  --- 17 cbr 512 [0 0 0 0] ------- [0:0 7:0 32 0] [9] 0 0
r 15.490048253 _0_ RTR  --- 17 cbr 512 [0 0 0 0] ------- [0:0 7:0 32 0] [9] 0 0
SFs 15.490048253 _0_ 17 [0 -> 7] 1(0) to 1 
s 15.490048253 _0_ RTR  --- 17 cbr 532 [0 0 0 0] ------- [0:0 7:0 32 1] [9] 0 0
r 15.495658253 _1_ RTR  --- 17 cbr 532 [13a 1 0 800] ------- [0:0 7:0 32 1] [9] 1 0
SFf 15.495658253 _1_ 17 [0 -> 7] 1 to 4
f 15.495658253 _1_ RTR  --- 17 cbr 532 [13a 1 0 800] ------- [0:0 7:0 31 4] [9] 1 0
r 15.501571667 _4_ RTR  --- 17 cbr 532 [13a 4 1 800] ------- [0:0 7:0 31 4] [9] 2 0
SFf 15.501571667 _4_ 17 [0 -> 7] 1 to 7
f 15.501571667 _4_ RTR  --- 17 cbr 532 [13a 4 1 800] ------- [0:0 7:0 30 7] [9] 2 0
r 15.507445081 _7_ RTR  --- 17 cbr 532 [13a 7 4 800] ------- [0:0 7:0 30 7] [9] 3 0
r 15.507445081 _7_ AGT  --- 17 cbr 512 [13a 7 4 800] ------- [0:0 7:0 30 7] [9] 3 0
s 15.517522502 _0_ AGT  --- 18 cbr 512 [0 0 0 0] ------- [0:0 7:0 32 0] [10] 0 0
r 15.517522502 _0_ RTR  --- 18 cbr 512 [0 0 0 0] ------- [0:0 7:0 32 0] [10] 0 0
SFs 15.517522502 _0_ 18 [0 -> 7] 1(0) to 1 
s 15.517522502 _0_ RTR  --- 18 cbr 532 [0 0 0 0] ------- [0:0 7:0 32 1] [10] 0 0
r 15.523572502 _1_ RTR  --- 18 cbr 532 [13a 1 0 800] ------- [0:0 7:0 32 1] [10] 1 0
SFf 15.523572502 _1_ 18 [0 -> 7] 1 to 4
f 15.523572502 _1_ RTR  --- 18 cbr 532 [13a 1 0 800] ------- [0:0 7:0 31 4] [10] 1 0
r 15.529825917 _4_ RTR  --- 18 cbr 532 [13a 4 1 800] ------- [0:0 7:0 31 4] [10] 2 0
SFf 15.529825917 _4_ 18 [0 -> 7] 1 to 7
f 15.529825917 _4_ RTR  --- 18 cbr 532 [13a 4 1 800] ------- [0:0 7:0 30 7] [10] 2 0
r 15.535919331 _7_ RTR  --- 18 cbr 532 [13a 7 4 800] ------- [0:0 7:0 30 7] [10] 3 0
r 15.535919331 _7_ AGT  --- 18 cbr 512 [13a 7 4 800] ------- [0:0 7:0 30 7] [10] 3 0
s 15.581196127 _0_ AGT  --- 19 cbr 512 [0 0 0 0] ------- [0:0 7:0 32 0] [11] 0 0
r 15.581196127 _0_ RTR  --- 19 cbr 512 [0 0 0 0] ------- [0:0 7:0 32 0] [11] 0 0
SFs 15.581196127 _0_ 19 [0 -> 7] 1(0) to 1 
s 15.581196127 _0_ RTR  --- 19 cbr 532 [0 0 0 0] ------- [0:0 7:0 32 1] [11] 0 0
r 15.586686127 _1_ RTR  --- 19 cbr 532 [13a 1 0 800] ------- [0:0 7:0 32 1] [11] 1 0
SFf 15.586686127 _1_ 19 [0 -> 7] 1 to 4
f 15.586686127 _1_ RTR  --- 19 cbr 532 [13a 1 0 800] ------- [0:0 7:0 31 4] [11] 1 0
r 15.592399541 _4_ RTR  --- 19 cbr 532 [13a 4 1 800] ------- [0:0 7:0 31 4] [11] 2 0
SFf 15.592399541 _4_ 19 [0 -> 7] 1 to 7
f 15.592399541 _4_ RTR  --- 19 cbr 532 [13a 4 1 800] ------- [0:0 7:0 30 7] [11] 2 0
r 15.598672956 _7_ RTR  --- 19 cbr 532 [13a 7 4 800] ------- [0:0 7:0 30 7] [11] 3 0
r 15.598672956 _7_ AGT  --- 19 cbr 512 [13a 7 4 800] ------- [0:0 7:0 30 7] [11] 3 0
s 15.607761782 _0_ AGT  --- 20 cbr 512 [0 0 0 0] ------- [0:0 7:0 32 0] [12] 0 0
r 15.607761782 _0_ RTR  --- 20 cbr 512 [0 0 0 0] ------- [0:0 7:0 32 0] [12] 0 0
SFs 15.607761782 _0_ 20 [0 -> 7] 1(0) to 1 
s 15.607761782 _0_ RTR  --- 20 cbr 532 [0 0 0 0] ------- [0:0 7:0 32 1] [12] 0 0
r 15.613731782 _1_ RTR  --- 20 cbr 532 [13a 1 0 800] ------- [0:0 7:0 32 1] [12] 1 0
SFf 15.613731782 _1_ 20 [0 -> 7] 1 to 4
f 15.613731782 _1_ RTR  --- 20 cbr 532 [13a 1 0 800] ------- [0:0 7:0 31 4] [12] 1 0
r 15.619745196 _4_ RTR  --- 20 cbr 532 [13a 4 1 800] ------- [0:0 7:0 31 4] [12] 2 0
SFf 15.619745196 _4_ 20 [0 -> 7] 1 to 7
f 15.619745196 _4_ RTR  --- 20 cbr 532 [13a 4 1 800] ------- [0:0 7:0 30 7] [12] 2 0
r 15.625638610 _7_ RTR  --- 20 cbr 532 [13a 7 4 800] ------- [0:0 7:0 30 7] [12] 3 0
r 15.625638610 _7_ AGT  --- 20 cbr 512 [13a 7 4 800] ------- [0:0 7:0 30 7] [12] 3 0
s 15.643801935 _0_ AGT  --- 21 cbr 512 [0 0 0 0] ------- [0:0 7:0 32 0] [13] 0 0
r 15.643801935 _0_ RTR  --- 21 cbr 512 [0 0 0 0] ------- [0:0 7:0 32 0] [13] 0 0
SFs 15.643801935 _0_ 21 [0 -> 7] 1(0) to 1 
s 15.643801935 _0_ RTR  --- 21 cbr 532 [0 0 0 0] ------- [0:0 7:0 32 1] [13] 0 0
r 15.649391935 _1_ RTR  --- 21 cbr 532 [13a 1 0 800] ------- [0:0 7:0 32 1] [13] 1 0
SFf 15.649391935 _1_ 21 [0 -> 7] 1 to 4
f 15.649391935 _1_ RTR  --- 21 cbr 532 [13a 1 0 800] ------- [0:0 7:0 31 4] [13] 1 0
r 15.655405350 _4_ RTR  --- 21 cbr 532 [13a 4 1 800] ------- [0:0 7:0 31 4] [13] 2 0
SFf 15.655405350 _4_ 21 [0 -> 7] 1 to 7
f 15.655405350 _4_ RTR  --- 21 cbr 532 [13a 4 1 800] ------- [0:0 7:0 30 7] [13] 2 0
r 15.661478764 _7_ RTR  --- 21 cbr 532 [13a 7 4 800] ------- [0:0 7:0 30 7] [13] 3 0
r 15.661478764 _7_ AGT  --- 21 cbr 512 [13a 7 4 800] ------- [0:0 7:0 30 7] [13] 3 0
s 15.695299776 _0_ AGT  --- 22 cbr 512 [0 0 0 0] ------- [0:0 7:0 32 0] [14] 0 0
r 15.695299776 _0_ RTR  --- 22 cbr 512 [0 0 0 0] ------- [0:0 7:0 32 0] [14] 0 0
SFs 15.695299776 _0_ 22 [0 -> 7] 1(0) to 1 
s 15.695299776 _0_ RTR  --- 22 cbr 532 [0 0 0 0] ------- [0:0 7:0 32 1] [14] 0 0
r 15.701169776 _1_ RTR  --- 22 cbr 532 [13a 1 0 800] ------- [0:0 7:0 32 1] [14] 1 0
SFf 15.701169776 _1_ 22 [0 -> 7] 1 to 4
f 15.701169776 _1_ RTR  --- 22 cbr 532 [13a 1 0 800] ------- [0:0 7:0 31 4] [14] 1 0
r 15.707323190 _4_ RTR  --- 22 cbr 532 [13a 4 1 800] ------- [0:0 7:0 31 4] [14] 2 0
SFf 15.707323190 _4_ 22 [0 -> 7] 1 to 7
f 15.707323190 _4_ RTR  --- 22 cbr 532 [13a 4 1 800] ------- [0:0 7:0 30 7] [14] 2 0
r 15.713156605 _7_ RTR  --- 22 cbr 532 [13a 7 4 800] ------- [0:0 7:0 30 7] [14] 3 0
r 15.713156605 _7_ AGT  --- 22 cbr 512 [13a 7 4 800] ------- [0:0 7:0 30 7] [14] 3 0
s 15.721273367 _0_ AGT  --- 23 cbr 512 [0 0 0 0] ------- [0:0 7:0 32 0] [15] 0 0
r 15.721273367 _0_ RTR  --- 23 cbr 512 [0 0 0 0] ------- [0:0 7:0 32 0] [15] 0 0
SFs 15.721273367 _0_ 23 [0 -> 7] 1(0) to 1 
s 15.721273367 _0_ RTR  --- 23 cbr 532 [0 0 0 0] ------- [0:0 7:0 32 1] [15] 0 0
r 15.727163367 _1_ RTR  --- 23 cbr 532 [13a 1 0 800] ------- [0:0 7:0 32 1] [15] 1 0
SFf 15.727163367 _1_ 23 [0 -> 7] 1 to 4
f 15.727163367 _1_ RTR  --- 23 cbr 532 [13a 1 0 800] ------- [0:0 7:0 31 4] [15] 1 0
r 15.733116781 _4_ RTR  --- 23 cbr 532 [13a 4 1 800] ------- [0:0 7:0 31 4] [15] 2 0
SFf 15.733116781 _4_ 23 [0 -> 7] 1 to 7
f 15.733116781 _4_ RTR  --- 23 cbr 532 [13a 4 1 800] ------- [0:0 7:0 30 7] [15] 2 0
r 15.739330196 _7_ RTR  --- 23 cbr 532 [13a 7 4 800] ------- [0:0 7:0 30 7] [15] 3 0
r 15.739330196 _7_ AGT  --- 23 cbr 512 [13a 7 4 800] ------- [0:0 7:0 30 7] [15] 3 0
s 15.759677904 _0_ AGT  --- 24 cbr 512 [0 0 0 0] ------- [0:0 7:0 32 0] [16] 0 0
r 15.759677904 _0_ RTR  --- 24 cbr 512 [0 0 0 0] ------- [0:0 7:0 32 0] [16] 0 0
SFs 15.759677904 _0_ 24 [0 -> 7] 1(0) to 1 
s 15.759677904 _0_ RTR  --- 24 cbr 532 [0 0 0 0] ------- [0:0 7:0 32 1] [16] 0 0
r 15.765687904 _1_ RTR  --- 24 cbr 532 [13a 1 0 800] ------- [0:0 7:0 32 1] [16] 1 0
SFf 15.765687904 _1_ 24 [0 -> 7] 1 to 4
f 15.765687904 _1_ RTR  --- 24 cbr 532 [13a 1 0 800] ------- [0:0 7:0 31 4] [16] 1 0
r 15.771541318 _4_ RTR  --- 24 cbr 532 [13a 4 1 800] ------- [0:0 7:0 31 4] [16] 2 0
SFf 15.771541318 _4_ 24 [0 -> 7] 1 to 7
f 15.771541318 _4_ RTR  --- 24 cbr 532 [13a 4 1 800] ------- [0:0 7:0 30 7] [16] 2 0
r 15.777674732 _7_ RTR  --- 24 cbr 532 [13a 7 4 800] ------- [0:0 7:0 30 7] [16] 3 0
r 15.777674732 _7_ AGT  --- 24 cbr 512 [13a 7 4 800] ------- [0:0 7:0 30 7] [16] 3 0
s 15.806364238 _0_ AGT  --- 25 cbr 512 [0 0 0 0] ------- [0:0 7:0 32 0] [17] 0 0
r 15.806364238 _0_ RTR  --- 25 cbr 512 [0 0 0 0] ------- [0:0 7:0 32 0] [17] 0 0
SFs 15.806364238 _0_ 25 [0 -> 7] 1(0) to 1 
s 15.806364238 _0_ RTR  --- 25 cbr 532 [0 0 0 0] ------- [0:0 7:0 32 1] [17] 0 0
r 15.812274238 _1_ RTR  --- 25 cbr 532 [13a 1 0 800] ------- [0:0 7:0 32 1] [17] 1 0
SFf 15.812274238 _1_ 25 [0 -> 7] 1 to 4
f 15.812274238 _1_ RTR  --- 25 cbr 532 [13a 1 0 800] ------- [0:0 7:0 31 4] [17] 1 0
r 15.818587653 _4_ RTR  --- 25 cbr 532 [13a 4 1 800] ------- [0:0 7:0 31 4] [17] 2 0
SFf 15.818587653 _4_ 25 [0 -> 7] 1 to 7
f 15.818587653 _4_ RTR  --- 25 cbr 532 [13a 4 1 800] ------- [0:0 7:0 30 7] [17] 2 0
r 15.824841067 _7_ RTR  --- 25 cbr 532 [13a 7 4 800] ------- [0:0 7:0 30 7] [17] 3 0
r 15.824841067 _7_ AGT  --- 25 cbr 512 [13a 7 4 800] ------- [0:0 7:0 30 7] [17] 3 0
s 15.861640603 _0_ AGT  --- 26 cbr 512 [0 0 0 0] ------- [0:0 7:0 32 0] [18] 0 0
r 15.861640603 _0_ RTR  --- 26 cbr 512 [0 0 0 0] ------- [0:0 7:0 32 0] [18] 0 0
SFs 15.861640603 _0_ 26 [0 -> 7] 1(0) to 1 
s 15.861640603 _0_ RTR  --- 26 cbr 532 [0 0 0 0] ------- [0:0 7:0 32 1] [18] 0 0
r 15.867210603 _1_ RTR  --- 26 cbr 532 [13a 1 0 800] ------- [0:0 7:0 32 1] [18] 1 0
SFf 15.867210603 _1_ 26 [0 -> 7] 1 to 4
f 15.867210603 _1_ RTR  --- 26 cbr 532 [13a 1 0 800] ------- [0:0 7:0 31 4] [18] 1 0
r 15.873004017 _4_ RTR  --- 26 cbr 532 [13a 4 1 800] ------- [0:0 7:0 31 4] [18] 2 0
SFf 15.873004017 _4_ 26 [0 -> 7] 1 to 7
f 15.873004017 _4_ RTR  --- 26 cbr 532 [13a 4 1 800] ------- [0:0 7:0 30 7] [18] 2 0
r 15.878817431 _7_ RTR  --- 26 cbr 532 [13a 7 4 800] ------- [0:0 7:0 30 7] [18] 3 0
r 15.878817431 _7_ AGT  --- 26 cbr 512 [13a 7 4 800] ------- [0:0 7:0 30 7] [18] 3 0
s 15.892088312 _0_ AGT  --- 27 cbr 512 [0 0 0 0] ------- [0:0 7:0 32 0] [19] 0 0
r 15.892088312 _0_ RTR  --- 27 cbr 512 [0 0 0 0] ------- [0:0 7:0 32 0] [19] 0 0
SFs 15.892088312 _0_ 27 [0 -> 7] 1(0) to 1 
s 15.892088312 _0_ RTR  --- 27 cbr 532 [0 0 0 0] ------- [0:0 7:0 32 1] [19] 0 0
r 15.897618312 _1_ RTR  --- 27 cbr 532 [13a 1 0 800] ------- [0:0 7:0 32 1] [19] 1 0
SFf 15.897618312 _1_ 27 [0 -> 7] 1 to 4
f 15.897618312 _1_ RTR  --- 27 cbr 532 [13a 1 0 800] ------- [0:0 7:0 31 4] [19] 1 0
r 15.903591726 _4_ RTR  --- 27 cbr 532 [13a 4 1 800] ------- [0:0 7:0 31 4] [19] 2 0
SFf 15.903591726 _4_ 27 [0 -> 7] 1 to 7
f 15.903591726 _4_ RTR  --- 27 cbr 532 [13a 4 1 800] ------- [0:0 7:0 30 7] [19] 2 0
r 15.909805140 _7_ RTR  --- 27 cbr 532 [13a 7 4 800] ------- [0:0 7:0 30 7] [19] 3 0
r 15.909805140 _7_ AGT  --- 27 cbr 512 [13a 7 4 800] ------- [0:0 7:0 30 7] [19] 3 0
s 15.931462681 _0_ AGT  --- 28 cbr 512 [0 0 0 0] ------- [0:0 7:0 32 0] [20] 0 0
r 15.931462681 _0_ RTR  --- 28 cbr 512 [0 0 0 0] ------- [0:0 7:0 32 0] [20] 0 0
SFs 15.931462681 _0_ 28 [0 -> 7] 1(0) to 1 
s 15.931462681 _0_ RTR  --- 28 cbr 532 [0 0 0 0] ------- [0:0 7:0 32 1] [20] 0 0
r 15.937472681 _1_ RTR  --- 28 cbr 532 [13a 1 0 800] ------- [0:0 7:0 32 1] [20] 1 0
SFf 15.937472681 _1_ 28 [0 -> 7] 1 to 4
f 15.937472681 _1_ RTR  --- 28 cbr 532 [13a 1 0 800] ------- [0:0 7:0 31 4] [20] 1 0
r 15.943186095 _4_ RTR  --- 28 cbr 532 [13a 4 1 800] ------- [0:0 7:0 31 4] [20] 2 0
SFf 15.943186095 _4_ 28 [0 -> 7] 1 to 7
f 15.943186095 _4_ RTR  --- 28 cbr 532 [13a 4 1 800] ------- [0:0 7:0 30 7] [20] 2 0
r 15.949399509 _7_ RTR  --- 28 cbr 532 [13a 7 4 800] ------- [0:0 7:0 30 7] [20] 3 0
r 15.949399509 _7_ AGT  --- 28 cbr 512 [13a 7 4 800] ------- [0:0 7:0 30 7] [20] 3 0
s 15.974681808 _0_ AGT  --- 29 cbr 512 [0 0 0 0] ------- [0:0 7:0 32 0] [21] 0 0
r 15.974681808 _0_ RTR  --- 29 cbr 512 [0 0 0 0] ------- [0:0 7:0 32 0] [21] 0 0
SFs 15.974681808 _0_ 29 [0 -> 7] 1(0) to 1 
s 15.974681808 _0_ RTR  --- 29 cbr 532 [0 0 0 0] ------- [0:0 7:0 32 1] [21] 0 0
r 15.980711808 _1_ RTR  --- 29 cbr 532 [13a 1 0 800] ------- [0:0 7:0 32 1] [21] 1 0
SFf 15.980711808 _1_ 29 [0 -> 7] 1 to 4
f 15.980711808 _1_ RTR  --- 29 cbr 532 [13a 1 0 800] ------- [0:0 7:0 31 4] [21] 1 0
r 15.986785222 _4_ RTR  --- 29 cbr 532 [13a 4 1 800] ------- [0:0 7:0 31 4] [21] 2 0
SFf 15.986785222 _4_ 29 [0 -> 7] 1 to 7
f 15.986785222 _4_ RTR  --- 29 cbr 532 [13a 4 1 800] ------- [0:0 7:0 30 7] [21] 2 0
r 15.992958637 _7_ RTR  --- 29 cbr 532 [13a 7 4 800] ------- [0:0 7:0 30 7] [21] 3 0
r 15.992958637 _7_ AGT  --- 29 cbr 512 [13a 7 4 800] ------- [0:0 7:0 30 7] [21] 3 0
s 16.043290310 _0_ AGT  --- 30 cbr 512 [0 0 0 0] ------- [0:0 7:0 32 0] [22] 0 0
r 16.043290310 _0_ RTR  --- 30 cbr 512 [0 0 0 0] ------- [0:0 7:0 32 0] [22] 0 0
SFs 16.043290310 _0_ 30 [0 -> 7] 1(0) to 1 
s 16.043290310 _0_ RTR  --- 30 cbr 532 [0 0 0 0] ------- [0:0 7:0 32 1] [22] 0 0
r 16.048940310 _1_ RTR  --- 30 cbr 532 [13a 1 0 800] ------- [0:0 7:0 32 1] [22] 1 0
SFf 16.048940310 _1_ 30 [0 -> 7] 1 to 4
f 16.048940310 _1_ RTR  --- 30 cbr 532 [13a 1 0 800] ------- [0:0 7:0 31 4] [22] 1 0
r 16.054973724 _4_ RTR  --- 30 cbr 532 [13a 4 1 800] ------- [0:0 7:0 31 4] [22] 2 0
SFf 16.054973724 _4_ 30 [0 -> 7] 1 to 7
f 16.054973724 _4_ RTR  --- 30 cbr 532 [13a 4 1 800] ------- [0:0 7:0 30 7] [22] 2 0
r 16.060807138 _7_ RTR  --- 30 cbr 532 [13a 7 4 800] ------- [0:0 7:0 30 7] [22] 3 0
r 16.060807138 _7_ AGT  --- 30 cbr 512 [13a 7 4 800] ------- [0:0 7:0 30 7] [22] 3 0
s 16.110716972 _0_ AGT  --- 31 cbr 512 [0 0 0 0] ------- [0:0 7:0 32 0] [23] 0 0
r 16.110716972 _0_ RTR  --- 31 cbr 512 [0 0 0 0] ------- [0:0 7:0 32 0] [23] 0 0
SFs 16.110716972 _0_ 31 [0 -> 7] 1(0) to 1 
s 16.110716972 _0_ RTR  --- 31 cbr 532 [0 0 0 0] ------- [0:0 7:0 32 1] [23] 0 0
r 16.116286972 _1_ RTR  --- 31 cbr 532 [13a 1 0 800] ------- [0:0 7:0 32 1] [23] 1 0
SFf 16.116286972 _1_ 31 [0 -> 7] 1 to 4
f 16.116286972 _1_ RTR  --- 31 cbr 532 [13a 1 0 800] ------- [0:0 7:0 31 4] [23] 1 0
r 16.122580387 _4_ RTR  --- 31 cbr 532 [13a 4 1 800] ------- [0:0 7:0 31 4] [23] 2 0
SFf 16.122580387 _4_ 31 [0 -> 7] 1 to 7
f 16.122580387 _4_ RTR  --- 31 cbr 532 [13a 4 1 800] ------- [0:0 7:0 30 7] [23] 2 0
r 16.128293801 _7_ RTR  --- 31 cbr 532 [13a 7 4 800] ------- [0:0 7:0 30 7] [23] 3 0
r 16.128293801 _7_ AGT  --- 31 cbr 512 [13a 7 4 800] ------- [0:0 7:0 30 7] [23] 3 0
s 16.153085028 _0_ AGT  --- 32 cbr 512 [0 0 0 0] ------- [0:0 7:0 32 0] [24] 0 0
r 16.153085028 _0_ RTR  --- 32 cbr 512 [0 0 0 0] ------- [0:0 7:0 32 0] [24] 0 0
SFs 16.153085028 _0_ 32 [0 -> 7] 1(0) to 1 
s 16.153085028 _0_ RTR  --- 32 cbr 532 [0 0 0 0] ------- [0:0 7:0 32 1] [24] 0 0
r 16.158535028 _1_ RTR  --- 32 cbr 532 [13a 1 0 800] ------- [0:0 7:0 32 1] [24] 1 0
SFf 16.158535028 _1_ 32 [0 -> 7] 1 to 4
f 16.158535028 _1_ RTR  --- 32 cbr 532 [13a 1 0 800] ------- [0:0 7:0 31 4] [24] 1 0
r 16.164528442 _4_ RTR  --- 32 cbr 532 [13a 4 1 800] ------- [0:0 7:0 31 4] [24] 2 0
SFf 16.164528442 _4_ 32 [0 -> 7] 1 to 7
f 16.164528442 _4_ RTR  --- 32 cbr 532 [13a 4 1 800] ------- [0:0 7:0 30 7] [24] 2 0
r 16.170461856 _7_ RTR  --- 32 cbr 532 [13a 7 4 800] ------- [0:0 7:0 30 7] [24] 3 0
r 16.170461856 _7_ AGT  --- 32 cbr 512 [13a 7 4 800] ------- [0:0 7:0 30 7] [24] 3 0
s 16.193117089 _0_ AGT  --- 33 cbr 512 [0 0 0 0] ------- [0:0 7:0 32 0] [25] 0 0
r 16.193117089 _0_ RTR  --- 33 cbr 512 [0 0 0 0] ------- [0:0 7:0 32 0] [25] 0 0
SFs 16.193117089 _0_ 33 [0 -> 7] 1(0) to 1 
s 16.193117089 _0_ RTR  --- 33 cbr 532 [0 0 0 0] ------- [0:0 7:0 32 1] [25] 0 0
r 16.198647089 _1_ RTR  --- 33 cbr 532 [13a 1 0 800] ------- [0:0 7:0 32 1] [25] 1 0
SFf 16.198647089 _1_ 33 [0 -> 7] 1 to 4
f 16.198647089 _1_ RTR  --- 33 cbr 532 [13a 1 0 800] ------- [0:0 7:0 31 4] [25] 1 0
r 16.204480503 _4_ RTR  --- 33 cbr 532 [13a 4 1 800] ------- [0:0 7:0 31 4] [25] 2 0
SFf 16.204480503 _4_ 33 [0 -> 7] 1 to 7
f 16.204480503 _4_ RTR  --- 33 cbr 532 [13a 4 1 800] ------- [0:0 7:0 30 7] [25] 2 0
r 16.210473917 _7_ RTR  --- 33 cbr 532 [13a 7 4 800] ------- [0:0 7:0 30 7] [25] 3 0
r 16.210473917 _7_ AGT  --- 33 cbr 512 [13a 7 4 800] ------- [0:0 7:0 30 7] [25] 3 0
s 16.245990578 _0_ AGT  --- 34 cbr 512 [0 0 0 0] ------- [0:0 7:0 32 0] [26] 0 0
r 16.245990578 _0_ RTR  --- 34 cbr 512 [0 0 0 0] ------- [0:0 7:0 32 0] [26] 0 0
SFs 16.245990578 _0_ 34 [0 -> 7] 1(0) to 1 
s 16.245990578 _0_ RTR  --- 34 cbr 532 [0 0 0 0] ------- [0:0 7:0 32 1] [26] 0 0
r 16.251480578 _1_ RTR  --- 34 cbr 532 [13a 1 0 800] ------- [0:0 7:0 32 1] [26] 1 0
SFf 16.251480578 _1_ 34 [0 -> 7] 1 to 4
f 16.251480578 _1_ RTR  --- 34 cbr 532 [13a 1 0 800] ------- [0:0 7:0 31 4] [26] 1 0