n -t * -s 0  -x 100 -y 100 -Z 0 -z 30  -v circle -c black
n -t * -s 1  -x 300 -y 100 -Z 0 -z 30  -v circle -c black
n -t * -s 2  -x 500 -y 100 -Z 0 -z 30  -v circle -c black
n -t * -s 3  -x 200 -y 200 -Z 0 -z 30  -v circle -c black
n -t * -s 4  -x 400 -y 200 -Z 0 -z 30  -v circle -c black
n -t * -s 5  -x 100 -y 300 -Z 0 -z 30  -v circle -c black
n -t * -s 6  -x 300 -y 300 -Z 0 -z 30  -v circle -c black
n -t * -s 7  -x 500 -y 300 -Z 0 -z 30  -v circle -c black
V -t * -v 1.0a5 -a 0
W -t * -x 500 -y 500
A -t * -n 1 -p 0 -o 0xffffffff -c 31 -a 1
A -t * -h 1 -m 2147483647 -s 0
+ -t 15.000000000 -s 0 -d -1 -p cbr -e 512 -c 2 -a 0 -i 0 -k AGT 
- -t 15.000000000 -s 0 -d -1 -p cbr -e 512 -c 2 -a 0 -i 0 -k AGT
h -t 15.000000000 -s 0 -d -1 -p cbr -e 512 -c 2 -a 0 -i 0 -k AGT
+ -t 15.005035754 -s 0 -d -1 -p DSR -e 32 -c 2 -a 0 -i 1 -k RTR 
- -t 15.005035754 -s 0 -d -1 -p DSR -e 32 -c 2 -a 0 -i 1 -k RTR
h -t 15.005035754 -s 0 -d -1 -p DSR -e 32 -c 2 -a 0 -i 1 -k RTR
+ -t 15.054106129 -s 0 -d -1 -p cbr -e 512 -c 2 -a 0 -i 3 -k AGT 
- -t 15.054106129 -s 0 -d -1 -p cbr -e 512 -c 2 -a 0 -i 3 -k AGT
h -t 15.054106129 -s 0 -d -1 -p cbr -e 512 -c 2 -a 0 -i 3 -k AGT
+ -t 15.058229233 -s 0 -d -1 -p DSR -e 32 -c 2 -a 0 -i 4 -k RTR 
- -t 15.058229233 -s 0 -d -1 -p DSR -e 32 -c 2 -a 0 -i 4 -k RTR
h -t 15.058229233 -s 0 -d -1 -p DSR -e 32 -c 2 -a 0 -i 4 -k RTR
+ -t 15.059817641 -s 1 -d -1 -p DSR -e 48 -c 2 -a 0 -i 4 -k RTR 
- -t 15.059817641 -s 1 -d -1 -p DSR -e 48 -c 2 -a 0 -i 4 -k RTR
h -t 15.059817641 -s 1 -d -1 -p DSR -e 48 -c 2 -a 0 -i 4 -k RTR
+ -t 15.060371971 -s 5 -d -1 -p DSR -e 48 -c 2 -a 0 -i 4 -k RTR 
- -t 15.060371971 -s 5 -d -1 -p DSR -e 48 -c 2 -a 0 -i 4 -k RTR
h -t 15.060371971 -s 5 -d -1 -p DSR -e 48 -c 2 -a 0 -i 4 -k RTR
+ -t 15.063801591 -s 4 -d -1 -p DSR -e 68 -c 2 -a 0 -i 4 -k RTR 
- -t 15.063801591 -s 4 -d -1 -p DSR -e 68 -c 2 -a 0 -i 4 -k RTR
h -t 15.063801591 -s 4 -d -1 -p DSR -e 68 -c 2 -a 0 -i 4 -k RTR
+ -t 15.065403592 -s 6 -d -1 -p DSR -e 68 -c 2 -a 0 -i 4 -k RTR 
- -t 15.065403592 -s 6 -d -1 -p DSR -e 68 -c 2 -a 0 -i 4 -k RTR
h -t 15.065403592 -s 6 -d -1 -p DSR -e 68 -c 2 -a 0 -i 4 -k RTR
+ -t 15.065764055 -s 7 -d 4 -p DSR -e 60 -c 2 -a 0 -i 5 -k RTR 
- -t 15.065764055 -s 7 -d 4 -p DSR -e 60 -c 2 -a 0 -i 5 -k RTR
h -t 15.065764055 -s 7 -d 4 -p DSR -e 60 -c 2 -a 0 -i 5 -k RTR
+ -t 15.066816146 -s 2 -d -1 -p DSR -e 68 -c 2 -a 0 -i 4 -k RTR 
- -t 15.066816146 -s 2 -d -1 -p DSR -e 68 -c 2 -a 0 -i 4 -k RTR
h -t 15.066816146 -s 2 -d -1 -p DSR -e 68 -c 2 -a 0 -i 4 -k RTR
+ -t 15.067894848 -s 3 -d -1 -p DSR -e 48 -c 2 -a 0 -i 4 -k RTR 
- -t 15.067894848 -s 3 -d -1 -p DSR -e 48 -c 2 -a 0 -i 4 -k RTR
h -t 15.067894848 -s 3 -d -1 -p DSR -e 48 -c 2 -a 0 -i 4 -k RTR
+ -t 15.068647673 -s 4 -d 1 -p DSR -e 60 -c 2 -a 0 -i 5 -k RTR 
- -t 15.068647673 -s 4 -d 1 -p DSR -e 60 -c 2 -a 0 -i 5 -k RTR
h -t 15.068647673 -s 4 -d 1 -p DSR -e 60 -c 2 -a 0 -i 5 -k RTR
+ -t 15.070947705 -s 7 -d 6 -p DSR -e 60 -c 2 -a 0 -i 6 -k RTR 
- -t 15.070947705 -s 7 -d 6 -p DSR -e 60 -c 2 -a 0 -i 6 -k RTR
h -t 15.070947705 -s 7 -d 6 -p DSR -e 60 -c 2 -a 0 -i 6 -k RTR
+ -t 15.071916030 -s 1 -d 0 -p DSR -e 60 -c 2 -a 0 -i 5 -k RTR 
- -t 15.071916030 -s 1 -d 0 -p DSR -e 60 -c 2 -a 0 -i 5 -k RTR
h -t 15.071916030 -s 1 -d 0 -p DSR -e 60 -c 2 -a 0 -i 5 -k RTR
+ -t 15.075224972 -s 0 -d 1 -p cbr -e 556 -c 2 -a 0 -i 0 -k RTR 
- -t 15.075224972 -s 0 -d 1 -p cbr -e 556 -c 2 -a 0 -i 0 -k RTR
h -t 15.075224972 -s 0 -d 1 -p cbr -e 556 -c 2 -a 0 -i 0 -k RTR
+ -t 15.076510052 -s 7 -d 2 -p DSR -e 60 -c 2 -a 0 -i 9 -k RTR 
- -t 15.076510052 -s 7 -d 2 -p DSR -e 60 -c 2 -a 0 -i 9 -k RTR
h -t 15.076510052 -s 7 -d 2 -p DSR -e 60 -c 2 -a 0 -i 9 -k RTR
+ -t 15.081370972 -s 1 -d 4 -p cbr -e 556 -c 2 -a 0 -i 0 -k RTR 
- -t 15.081370972 -s 1 -d 4 -p cbr -e 556 -c 2 -a 0 -i 0 -k RTR
h -t 15.081370972 -s 1 -d 4 -p cbr -e 556 -c 2 -a 0 -i 0 -k RTR
+ -t 15.087816387 -s 4 -d 7 -p cbr -e 556 -c 2 -a 0 -i 0 -k RTR 
- -t 15.087816387 -s 4 -d 7 -p cbr -e 556 -c 2 -a 0 -i 0 -k RTR
h -t 15.087816387 -s 4 -d 7 -p cbr -e 556 -c 2 -a 0 -i 0 -k RTR
r -t 15.094161801 -s 7 -d 7 -p cbr -e 512 -c 2 -a 0 -i 0 -k AGT
+ -t 15.096139801 -s 6 -d 1 -p DSR -e 60 -c 2 -a 0 -i 6 -k RTR 
- -t 15.096139801 -s 6 -d 1 -p DSR -e 60 -c 2 -a 0 -i 6 -k RTR
h -t 15.096139801 -s 6 -d 1 -p DSR -e 60 -c 2 -a 0 -i 6 -k RTR
+ -t 15.097912575 -s 0 -d -1 -p cbr -e 512 -c 2 -a 0 -i 10 -k AGT 
- -t 15.097912575 -s 0 -d -1 -p cbr -e 512 -c 2 -a 0 -i 10 -k AGT
h -t 15.097912575 -s 0 -d -1 -p cbr -e 512 -c 2 -a 0 -i 10 -k AGT
+ -t 15.097912575 -s 0 -d 1 -p cbr -e 556 -c 2 -a 0 -i 10 -k RTR 
- -t 15.097912575 -s 0 -d 1 -p cbr -e 556 -c 2 -a 0 -i 10 -k RTR
h -t 15.097912575 -s 0 -d 1 -p cbr -e 556 -c 2 -a 0 -i 10 -k RTR
+ -t 15.098398468 -s 2 -d 1 -p DSR -e 60 -c 2 -a 0 -i 9 -k RTR 
- -t 15.098398468 -s 2 -d 1 -p DSR -e 60 -c 2 -a 0 -i 9 -k RTR
h -t 15.098398468 -s 2 -d 1 -p DSR -e 60 -c 2 -a 0 -i 9 -k RTR
+ -t 15.100476468 -s 1 -d 0 -p DSR -e 60 -c 2 -a 0 -i 9 -k RTR 
- -t 15.100476468 -s 1 -d 0 -p DSR -e 60 -c 2 -a 0 -i 9 -k RTR
h -t 15.100476468 -s 1 -d 0 -p DSR -e 60 -c 2 -a 0 -i 9 -k RTR
+ -t 15.105224972 -s 0 -d 1 -p cbr -e 556 -c 2 -a 0 -i 3 -k RTR 
- -t 15.105224972 -s 0 -d 1 -p cbr -e 556 -c 2 -a 0 -i 3 -k RTR
h -t 15.105224972 -s 0 -d 1 -p cbr -e 556 -c 2 -a 0 -i 3 -k RTR
+ -t 15.108600468 -s 1 -d 4 -p cbr -e 556 -c 2 -a 0 -i 10 -k RTR 
- -t 15.108600468 -s 1 -d 4 -p cbr -e 556 -c 2 -a 0 -i 10 -k RTR
h -t 15.108600468 -s 1 -d 4 -p cbr -e 556 -c 2 -a 0 -i 10 -k RTR
+ -t 15.110728744 -s 1 -d 0 -p DSR -e 60 -c 2 -a 0 -i 6 -k RTR 
- -t 15.110728744 -s 1 -d 0 -p DSR -e 60 -c 2 -a 0 -i 6 -k RTR
h -t 15.110728744 -s 1 -d 0 -p DSR -e 60 -c 2 -a 0 -i 6 -k RTR
+ -t 15.116965020 -s 1 -d 4 -p cbr -e 556 -c 2 -a 0 -i 3 -k RTR 
- -t 15.116965020 -s 1 -d 4 -p cbr -e 556 -c 2 -a 0 -i 3 -k RTR
h -t 15.116965020 -s 1 -d 4 -p cbr -e 556 -c 2 -a 0 -i 3 -k RTR
+ -t 15.122930434 -s 4 -d 7 -p cbr -e 556 -c 2 -a 0 -i 10 -k RTR 
- -t 15.122930434 -s 4 -d 7 -p cbr -e 556 -c 2 -a 0 -i 10 -k RTR
h -t 15.122930434 -s 4 -d 7 -p cbr -e 556 -c 2 -a 0 -i 10 -k RTR
r -t 15.129095848 -s 7 -d 7 -p cbr -e 512 -c 2 -a 0 -i 10 -k AGT
+ -t 15.137524872 -s 4 -d 7 -p cbr -e 556 -c 2 -a 0 -i 3 -k RTR 
- -t 15.137524872 -s 4 -d 7 -p cbr -e 556 -c 2 -a 0 -i 3 -k RTR
h -t 15.137524872 -s 4 -d 7 -p cbr -e 556 -c 2 -a 0 -i 3 -k RTR
r -t 15.143950286 -s 7 -d 7 -p cbr -e 512 -c 2 -a 0 -i 3 -k AGT
+ -t 15.168283840 -s 0 -d -1 -p cbr -e 512 -c 2 -a 0 -i 11 -k AGT 
- -t 15.168283840 -s 0 -d -1 -p cbr -e 512 -c 2 -a 0 -i 11 -k AGT
h -t 15.168283840 -s 0 -d -1 -p cbr -e 512 -c 2 -a 0 -i 11 -k AGT
+ -t 15.168283840 -s 0 -d 1 -p cbr -e 532 -c 2 -a 0 -i 11 -k RTR 
- -t 15.168283840 -s 0 -d 1 -p cbr -e 532 -c 2 -a 0 -i 11 -k RTR
h -t 15.168283840 -s 0 -d 1 -p cbr -e 532 -c 2 -a 0 -i 11 -k RTR
+ -t 15.173893840 -s 1 -d 4 -p cbr -e 532 -c 2 -a 0 -i 11 -k RTR 
- -t 15.173893840 -s 1 -d 4 -p cbr -e 532 -c 2 -a 0 -i 11 -k RTR
h -t 15.173893840 -s 1 -d 4 -p cbr -e 532 -c 2 -a 0 -i 11 -k RTR
+ -t 15.180067254 -s 4 -d 7 -p cbr -e 532 -c 2 -a 0 -i 11 -k RTR 
- -t 15.180067254 -s 4 -d 7 -p cbr -e 532 -c 2 -a 0 -i 11 -k RTR
h -t 15.180067254 -s 4 -d 7 -p cbr -e 532 -c 2 -a 0 -i 11 -k RTR
r -t 15.186120669 -s 7 -d 7 -p cbr -e 512 -c 2 -a 0 -i 11 -k AGT
+ -t 15.200564597 -s 0 -d -1 -p cbr -e 512 -c 2 -a 0 -i 12 -k AGT 
- -t 15.200564597 -s 0 -d -1 -p cbr -e 512 -c 2 -a 0 -i 12 -k AGT
h -t 15.200564597 -s 0 -d -1 -p cbr -e 512 -c 2 -a 0 -i 12 -k AGT
+ -t 15.200564597 -s 0 -d 1 -p cbr -e 532 -c 2 -a 0 -i 12 -k RTR 
- -t 15.200564597 -s 0 -d 1 -p cbr -e 532 -c 2 -a 0 -i 12 -k RTR
h -t 15.200564597 -s 0 -d 1 -p cbr -e 532 -c 2 -a 0 -i 12 -k RTR
+ -t 15.206434597 -s 1 -d 4 -p cbr -e 532 -c 2 -a 0 -i 12 -k RTR 
- -t 15.206434597 -s 1 -d 4 -p cbr -e 532 -c 2 -a 0 -i 12 -k RTR
h -t 15.206434597 -s 1 -d 4 -p cbr -e 532 -c 2 -a 0 -i 12 -k RTR
+ -t 15.212348011 -s 4 -d 7 -p cbr -e 532 -c 2 -a 0 -i 12 -k RTR 
- -t 15.212348011 -s 4 -d 7 -p cbr -e 532 -c 2 -a 0 -i 12 -k RTR
h -t 15.212348011 -s 4 -d 7 -p cbr -e 532 -c 2 -a 0 -i 12 -k RTR
r -t 15.218401425 -s 7 -d 7 -p cbr -e 512 -c 2 -a 0 -i 12 -k AGT
+ -t 15.262183406 -s 0 -d -1 -p cbr -e 512 -c 2 -a 0 -i 13 -k AGT 
- -t 15.262183406 -s 0 -d -1 -p cbr -e 512 -c 2 -a 0 -i 13 -k AGT
h -t 15.262183406 -s 0 -d -1 -p cbr -e 512 -c 2 -a 0 -i 13 -k AGT
+ -t 15.262183406 -s 0 -d 1 -p cbr -e 532 -c 2 -a 0 -i 13 -k RTR 
- -t 15.262183406 -s 0 -d 1 -p cbr -e 532 -c 2 -a 0 -i 13 -k RTR
h -t 15.262183406 -s 0 -d 1 -p cbr -e 532 -c 2 -a 0 -i 13 -k RTR
+ -t 15.267693406 -s 1 -d 4 -p cbr -e 532 -c 2 -a 0 -i 13 -k RTR 
- -t 15.267693406 -s 1 -d 4 -p cbr -e 532 -c 2 -a 0 -i 13 -k RTR
h -t 15.267693406 -s 1 -d 4 -p cbr -e 532 -c 2 -a 0 -i 13 -k RTR
+ -t 15.273626820 -s 4 -d 7 -p cbr -e 532 -c 2 -a 0 -i 13 -k RTR 
- -t 15.273626820 -s 4 -d 7 -p cbr -e 532 -c 2 -a 0 -i 13 -k RTR
h -t 15.273626820 -s 4 -d 7 -p cbr -e 532 -c 2 -a 0 -i 13 -k RTR
r -t 15.279720234 -s 7 -d 7 -p cbr -e 512 -c 2 -a 0 -i 13 -k AGT
+ -t 15.316079111 -s 0 -d -1 -p cbr -e 512 -c 2 -a 0 -i 14 -k AGT 
- -t 15.316079111 -s 0 -d -1 -p cbr -e 512 -c 2 -a 0 -i 14 -k AGT
h -t 15.316079111 -s 0 -d -1 -p cbr -e 512 -c 2 -a 0 -i 14 -k AGT
+ -t 15.316079111 -s 0 -d 1 -p cbr -e 532 -c 2 -a 0 -i 14 -k RTR 
- -t 15.316079111 -s 0 -d 1 -p cbr -e 532 -c 2 -a 0 -i 14 -k RTR
h -t 15.316079111 -s 0 -d 1 -p cbr -e 532 -c 2 -a 0 -i 14 -k RTR
+ -t 15.321929111 -s 1 -d 4 -p cbr -e 532 -c 2 -a 0 -i 14 -k RTR 
- -t 15.321929111 -s 1 -d 4 -p cbr -e 532 -c 2 -a 0 -i 14 -k RTR
h -t 15.321929111 -s 1 -d 4 -p cbr -e 532 -c 2 -a 0 -i 14 -k RTR
+ -t 15.327882525 -s 4 -d 7 -p cbr -e 532 -c 2 -a 0 -i 14 -k RTR 
- -t 15.327882525 -s 4 -d 7 -p cbr -e 532 -c 2 -a 0 -i 14 -k RTR
h -t 15.327882525 -s 4 -d 7 -p cbr -e 532 -c 2 -a 0 -i 14 -k RTR
r -t 15.333675939 -s 7 -d 7 -p cbr -e 512 -c 2 -a 0 -i 14 -k AGT
+ -t 15.371144682 -s 0 -d -1 -p cbr -e 512 -c 2 -a 0 -i 15 -k AGT 
- -t 15.371144682 -s 0 -d -1 -p cbr -e 512 -c 2 -a 0 -i 15 -k AGT
h -t 15.371144682 -s 0 -d -1 -p cbr -e 512 -c 2 -a 0 -i 15 -k AGT
+ -t 15.371144682 -s 0 -d 1 -p cbr -e 532 -c 2 -a 0 -i 15 -k RTR 
- -t 15.371144682 -s 0 -d 1 -p cbr -e 532 -c 2 -a 0 -i 15 -k RTR
h -t 15.371144682 -s 0 -d 1 -p cbr -e 532 -c 2 -a 0 -i 15 -k RTR
+ -t 15.376934682 -s 1 -d 4 -p cbr -e 532 -c 2 -a 0 -i 15 -k RTR 
- -t 15.376934682 -s 1 -d 4 -p cbr -e 532 -c 2 -a 0 -i 15 -k RTR
h -t 15.376934682 -s 1 -d 4 -p cbr -e 532 -c 2 -a 0 -i 15 -k RTR
+ -t 15.383068096 -s 4 -d 7 -p cbr -e 532 -c 2 -a 0 -i 15 -k RTR 
- -t 15.383068096 -s 4 -d 7 -p cbr -e 532 -c 2 -a 0 -i 15 -k RTR
h -t 15.383068096 -s 4 -d 7 -p cbr -e 532 -c 2 -a 0 -i 15 -k RTR
r -t 15.389041510 -s 7 -d 7 -p cbr -e 512 -c 2 -a 0 -i 15 -k AGT
+ -t 15.416838116 -s 0 -d -1 -p cbr -e 512 -c 2 -a 0 -i 16 -k AGT 
- -t 15.416838116 -s 0 -d -1 -p cbr -e 512 -c 2 -a 0 -i 16 -k AGT
h -t 15.416838116 -s 0 -d -1 -p cbr -e 512 -c 2 -a 0 -i 16 -k AGT
+ -t 15.416838116 -s 0 -d 1 -p cbr -e 532 -c 2 -a 0 -i 16 -k RTR 
- -t 15.416838116 -s 0 -d 1 -p cbr -e 532 -c 2 -a 0 -i 16 -k RTR
h -t 15.416838116 -s 0 -d 1 -p cbr -e 532 -c 2 -a 0 -i 16 -k RTR
+ -t 15.422568116 -s 1 -d 4 -p cbr -e 532 -c 2 -a 0 -i 16 -k RTR 
- -t 15.422568116 -s 1 -d 4 -p cbr -e 532 -c 2 -a 0 -i 16 -k RTR
h -t 15.422568116 -s 1 -d 4 -p cbr -e 532 -c 2 -a 0 -i 16 -k RTR
+ -t 15.428741531 -s 4 -d 7 -p cbr -e 532 -c 2 -a 0 -i 16 -k RTR 
- -t 15.428741531 -s 4 -d 7 -p cbr -e 532 -c 2 -a 0 -i 16 -k RTR
h -t 15.428741531 -s 4 -d 7 -p cbr -e 532 -c 2 -a 0 -i 16 -k RTR
r -t 15.434854945 -s 7 -d 7 -p cbr -e 512 -c 2 -a 0 -i 16 -k AGT
+ -t 15.490048253 -s 0 -d -1 -p cbr -e 512 -c 2 -a 0 -i 17 -k AGT 
- -t 15.490048253 -s 0 -d -1 -p cbr -e 512 -c 2 -a 0 -i 17 -k AGT
h -t 15.490048253 -s 0 -d -1 -p cbr -e 512 -c 2 -a 0 -i 17 -k AGT
+ -t 15.490048253 -s 0 -d 1 -p cbr -e 532 -c 2 -a 0 -i 17 -k RTR 
- -t 15.490048253 -s 0 -d 1 -p cbr -e 532 -c 2 -a 0 -i 17 -k RTR
h -t 15.490048253 -s 0 -d 1 -p cbr -e 532 -c 2 -a 0 -i 17 -k RTR
+ -t 15.495658253 -s 1 -d 4 -p cbr -e 532 -c 2 -a 0 -i 17 -k RTR 
- -t 15.495658253 -s 1 -d 4 -p cbr -e 532 -c 2 -a 0 -i 17 -k RTR
h -t 15.495658253 -s 1 -d 4 -p cbr -e 532 -c 2 -a 0 -i 17 -k RTR
+ -t 15.501571667 -s 4 -d 7 -p cbr -e 532 -c 2 -a 0 -i 17 -k RTR 
- -t 15.501571667 -s 4 -d 7 -p cbr -e 532 -c 2 -a 0 -i 17 -k RTR
h -t 15.501571667 -s 4 -d 7 -p cbr -e 532 -c 2 -a 0 -i 17 -k RTR
r -t 15.507445081 -s 7 -d 7 -p cbr -e 512 -c 2 -a 0 -i 17 -k AGT
+ -t 15.517522502 -s 0 -d -1 -p cbr -e 512 -c 2 -a 0 -i 18 -k AGT 
- -t 15.517522502 -s 0 -d -1 -p cbr -e 512 -c 2 -a 0 -i 18 -k AGT
h -t 15.517522502 -s 0 -d -1 -p cbr -e 512 -c 2 -a 0 -i 18 -k AGT
+ -t 15.517522502 -s 0 -d 1 -p cbr -e 532 -c 2 -a 0 -i 18 -k RTR 
- -t 15.517522502 -s 0 -d 1 -p cbr -e 532 -c 2 -a 0 -i 18 -k RTR
h -t 15.517522502 -s 0 -d 1 -p cbr -e 532 -c 2 -a 0 -i 18 -k RTR
+ -t 15.523572502 -s 1 -d 4 -p cbr -e 532 -c 2 -a 0 -i 18 -k RTR 
- -t 15.523572502 -s 1 -d 4 -p cbr -e 532 -c 2 -a 0 -i 18 -k RTR
h -t 15.523572502 -s 1 -d 4 -p cbr -e 532 -c 2 -a 0 -i 18 -k RTR
+ -t 15.529825917 -s 4 -d 7 -p cbr -e 532 -c 2 -a 0 -i 18 -k RTR 
- -t 15.529825917 -s 4 -d 7 -p cbr -e 532 -c 2 -a 0 -i 18 -k RTR
h -t 15.529825917 -s 4 -d 7 -p cbr -e 532 -c 2 -a 0 -i 18 -k RTR
r -t 15.535919331 -s 7 -d 7 -p cbr -e 512 -c 2 -a 0 -i 18 -k AGT
+ -t 15.581196127 -s 0 -d -1 -p cbr -e 512 -c 2 -a 0 -i 19 -k AGT 
- -t 15.581196127 -s 0 -d -1 -p cbr -e 512 -c 2 -a 0 -i 19 -k AGT
h -t 15.581196127 -s 0 -d -1 -p cbr -e 512 -c 2 -a 0 -i 19 -k AGT
+ -t 15.581196127 -s 0 -d 1 -p cbr -e 532 -c 2 -a 0 -i 19 -k RTR 
- -t 15.581196127 -s 0 -d 1 -p cbr -e 532 -c 2 -a 0 -i 19 -k RTR
h -t 15.581196127 -s 0 -d 1 -p cbr -e 532 -c 2 -a 0 -i 19 -k RTR
+ -t 15.586686127 -s 1 -d 4 -p cbr -e 532 -c 2 -a 0 -i 19 -k RTR 
- -t 15.586686127 -s 1 -d 4 -p cbr -e 532 -c 2 -a 0 -i 19 -k RTR
h -t 15.586686127 -s 1 -d 4 -p cbr -e 532 -c 2 -a 0 -i 19 -k RTR
+ -t 15.592399541 -s 4 -d 7 -p cbr -e 532 -c 2 -a 0 -i 19 -k RTR 
- -t 15.592399541 -s 4 -d 7 -p cbr -e 532 -c 2 -a 0 -i 19 -k RTR
h -t 15.592399541 -s 4 -d 7 -p cbr -e 532 -c 2 -a 0 -i 19 -k RTR
r -t 15.598672956 -s 7 -d 7 -p cbr -e 512 -c 2 -a 0 -i 19 -k AGT
+ -t 15.607761782 -s 0 -d -1 -p cbr -e 512 -c 2 -a 0 -i 20 -k AGT 
- -t 15.607761782 -s 0 -d -1 -p cbr -e 512 -c 2 -a 0 -i 20 -k AGT
h -t 15.607761782 -s 0 -d -1 -p cbr -e 512 -c 2 -a 0 -i 20 -k AGT
+ -t 15.607761782 -s 0 -d 1 -p cbr -e 532 -c 2 -a 0 -i 20 -k RTR 
- -t 15.607761782 -s 0 -d 1 -p cbr -e 532 -c 2 -a 0 -i 20 -k RTR
h -t 15.607761782 -s 0 -d 1 -p cbr -e 532 -c 2 -a 0 -i 20 -k RTR
+ -t 15.613731782 -s 1 -d 4 -p cbr -e 532 -c 2 -a 0 -i 20 -k RTR 
- -t 15.613731782 -s 1 -d 4 -p cbr -e 532 -c 2 -a 0 -i 20 -k RTR
h -t 15.613731782 -s 1 -d 4 -p cbr -e 532 -c 2 -a 0 -i 20 -k RTR
+ -t 15.619745196 -s 4 -d 7 -p cbr -e 532 -c 2 -a 0 -i 20 -k RTR 
- -t 15.619745196 -s 4 -d 7 -p cbr -e 532 -c 2 -a 0 -i 20 -k RTR
h -t 15.619745196 -s 4 -d 7 -p cbr -e 532 -c 2 -a 0 -i 20 -k RTR
r -t 15.625638610 -s 7 -d 7 -p cbr -e 512 -c 2 -a 0 -i 20 -k AGT
+ -t 15.643801935 -s 0 -d -1 -p cbr -e 512 -c 2 -a 0 -i 21 -k AGT 
- -t 15.643801935 -s 0 -d -1 -p cbr -e 512 -c 2 -a 0 -i 21 -k AGT
h -t 15.643801935 -s 0 -d -1 -p cbr -e 512 -c 2 -a 0 -i 21 -k AGT
+ -t 15.643801935 -s 0 -d 1 -p cbr -e 532 -c 2 -a 0 -i 21 -k RTR 
- -t 15.643801935 -s 0 -d 1 -p cbr -e 532 -c 2 -a 0 -i 21 -k RTR
h -t 15.643801935 -s 0 -d 1 -p cbr -e 532 -c 2 -a 0 -i 21 -k RTR
+ -t 15.649391935 -s 1 -d 4 -p cbr -e 532 -c 2 -a 0 -i 21 -k RTR 
- -t 15.649391935 -s 1 -d 4 -p cbr -e 532 -c 2 -a 0 -i 21 -k RTR
h -t 15.649391935 -s 1 -d 4 -p cbr -e 532 -c 2 -a 0 -i 21 -k RTR
+ -t 15.655405350 -s 4 -d 7 -p cbr -e 532 -c 2 -a 0 -i 21 -k RTR 
- -t 15.655405350 -s 4 -d 7 -p cbr -e 532 -c 2 -a 0 -i 21 -k RTR
h -t 15.655405350 -s 4 -d 7 -p cbr -e 532 -c 2 -a 0 -i 21 -k RTR
r -t 15.661478764 -s 7 -d 7 -p cbr -e 512 -c 2 -a 0 -i 21 -k AGT
+ -t 15.695299776 -s 0 -d -1 -p cbr -e 512 -c 2 -a 0 -i 22 -k AGT 
- -t 15.695299776 -s 0 -d -1 -p cbr -e 512 -c 2 -a 0 -i 22 -k AGT
h -t 15.695299776 -s 0 -d -1 -p cbr -e 512 -c 2 -a 0 -i 22 -k AGT
+ -t 15.695299776 -s 0 -d 1 -p cbr -e 532 -c 2 -a 0 -i 22 -k RTR 
- -t 15.695299776 -s 0 -d 1 -p cbr -e 532 -c 2 -a 0 -i 22 -k RTR
h -t 15.695299776 -s 0 -d 1 -p cbr -e 532 -c 2 -a 0 -i 22 -k RTR
+ -t 15.701169776 -s 1 -d 4 -p cbr -e 532 -c 2 -a 0 -i 22 -k RTR 
- -t 15.701169776 -s 1 -d 4 -p cbr -e 532 -c 2 -a 0 -i 22 -k RTR
h -t 15.701169776 -s 1 -d 4 -p cbr -e 532 -c 2 -a 0 -i 22 -k RTR
+ -t 15.707323190 -s 4 -d 7 -p cbr -e 532 -c 2 -a 0 -i 22 -k RTR 
- -t 15.707323190 -s 4 -d 7 -p cbr -e 532 -c 2 -a 0 -i 22 -k RTR
h -t 15.707323190 -s 4 -d 7 -p cbr -e 532 -c 2 -a 0 -i 22 -k RTR
r -t 15.713156605 -s 7 -d 7 -p cbr -e 512 -c 2 -a 0 -i 22 -k AGT
+ -t 15.721273367 -s 0 -d -1 -p cbr -e 512 -c 2 -a 0 -i 23 -k AGT 
- -t 15.721273367 -s 0 -d -1 -p cbr -e 512 -c 2 -a 0 -i 23 -k AGT
h -t 15.721273367 -s 0 -d -1 -p cbr -e 512 -c 2 -a 0 -i 23 -k AGT
+ -t 15.721273367 -s 0 -d 1 -p cbr -e 532 -c 2 -a 0 -i 23 -k RTR 
- -t 15.721273367 -s 0 -d 1 -p cbr -e 532 -c 2 -a 0 -i 23 -k RTR
h -t 15.721273367 -s 0 -d 1 -p cbr -e 532 -c 2 -a 0 -i 23 -k RTR
+ -t 15.727163367 -s 1 -d 4 -p cbr -e 532 -c 2 -a 0 -i 23 -k RTR 
- -t 15.727163367 -s 1 -d 4 -p cbr -e 532 -c 2 -a 0 -i 23 -k RTR
h -t 15.727163367 -s 1 -d 4 -p cbr -e 532 -c 2 -a 0 -i 23 -k RTR
+ -t 15.733116781 -s 4 -d 7 -p cbr -e 532 -c 2 -a 0 -i 23 -k RTR 
- -t 15.733116781 -s 4 -d 7 -p cbr -e 532 -c 2 -a 0 -i 23 -k RTR
h -t 15.733116781 -s 4 -d 7 -p cbr -e 532 -c 2 -a 0 -i 23 -k RTR
r -t 15.739330196 -s 7 -d 7 -p cbr -e 512 -c 2 -a 0 -i 23 -k AGT
+ -t 15.759677904 -s 0 -d -1 -p cbr -e 512 -c 2 -a 0 -i 24 -k AGT 
- -t 15.759677904 -s 0 -d -1 -p cbr -e 512 -c 2 -a 0 -i 24 -k AGT
h -t 15.759677904 -s 0 -d -1 -p cbr -e 512 -c 2 -a 0 -i 24 -k AGT
+ -t 15.759677904 -s 0 -d 1 -p cbr -e 532 -c 2 -a 0 -i 24 -k RTR 
- -t 15.759677904 -s 0 -d 1 -p cbr -e 532 -c 2 -a 0 -i 24 -k RTR
h -t 15.759677904 -s 0 -d 1 -p cbr -e 532 -c 2 -a 0 -i 24 -k RTR
+ -t 15.765687904 -s 1 -d 4 -p cbr -e 532 -c 2 -a 0 -i 24 -k RTR 
- -t 15.765687904 -s 1 -d 4 -p cbr -e 532 -c 2 -a 0 -i 24 -k RTR
h -t 15.765687904 -s 1 -d 4 -p cbr -e 532 -c 2 -a 0 -i 24 -k RTR
+ -t 15.771541318 -s 4 -d 7 -p cbr -e 532 -c 2 -a 0 -i 24 -k RTR 
- -t 15.771541318 -s 4 -d 7 -p cbr -e 532 -c 2 -a 0 -i 24 -k RTR
h -t 15.771541318 -s 4 -d 7 -p cbr -e 532 -c 2 -a 0 -i 24 -k RTR
r -t 15.777674732 -s 7 -d 7 -p cbr -e 512 -c 2 -a 0 -i 24 -k AGT
+ -t 15.806364238 -s 0 -d -1 -p cbr -e 512 -c 2 -a 0 -i 25 -k AGT 
- -t 15.806364238 -s 0 -d -1 -p cbr -e 512 -c 2 -a 0 -i 25 -k AGT
h -t 15.806364238 -s 0 -d -1 -p cbr -e 512 -c 2 -a 0 -i 25 -k AGT
+ -t 15.806364238 -s 0 -d 1 -p cbr -e 532 -c 2 -a 0 -i 25 -k RTR 
- -t 15.806364238 -s 0 -d 1 -p cbr -e 532 -c 2 -a 0 -i 25 -k RTR
h -t 15.806364238 -s 0 -d 1 -p cbr -e 532 -c 2 -a 0 -i 25 -k RTR
+ -t 15.812274238 -s 1 -d 4 -p cbr -e 532 -c 2 -a 0 -i 25 -k RTR 
- -t 15.812274238 -s 1 -d 4 -p cbr -e 532 -c 2 -a 0 -i 25 -k RTR
h -t 15.812274238 -s 1 -d 4 -p cbr -e 532 -c 2 -a 0 -i 25 -k RTR
+ -t 15.818587653 -s 4 -d 7 -p cbr -e 532 -c 2 -a 0 -i 25 -k RTR 
- -t 15.818587653 -s 4 -d 7 -p cbr -e 532 -c 2 -a 0 -i 25 -k RTR
h -t 15.818587653 -s 4 -d 7 -p cbr -e 532 -c 2 -a 0 -i 25 -k RTR
r -t 15.824841067 -s 7 -d 7 -p cbr -e 512 -c 2 -a 0 -i 25 -k AGT
+ -t 15.861640603 -s 0 -d -1 -p cbr -e 512 -c 2 -a 0 -i 26 -k AGT 
- -t 15.861640603 -s 0 -d -1 -p cbr -e 512 -c 2 -a 0 -i 26 -k AGT
h -t 15.861640603 -s 0 -d -1 -p cbr -e 512 -c 2 -a 0 -i 26 -k AGT
+ -t 15.861640603 -s 0 -d 1 -p cbr -e 532 -c 2 -a 0 -i 26 -k RTR 
- -t 15.861640603 -s 0 -d 1 -p cbr -e 532 -c 2 -a 0 -i 26 -k RTR
h -t 15.861640603 -s 0 -d 1 -p cbr -e 532 -c 2 -a 0 -i 26 -k RTR
+ -t 15.867210603 -s 1 -d 4 -p cbr -e 532 -c 2 -a 0 -i 26 -k RTR 
- -t 15.867210603 -s 1 -d 4 -p cbr -e 532 -c 2 -a 0 -i 26 -k RTR
h -t 15.867210603 -s 1 -d 4 -p cbr -e 532 -c 2 -a 0 -i 26 -k RTR
+ -t 15.873004017 -s 4 -d 7 -p cbr -e 532 -c 2 -a 0 -i 26 -k RTR 
- -t 15.873004017 -s 4 -d 7 -p cbr -e 532 -c 2 -a 0 -i 26 -k RTR
h -t 15.873004017 -s 4 -d 7 -p cbr -e 532 -c 2 -a 0 -i 26 -k RTR
r -t 15.878817431 -s 7 -d 7 -p cbr -e 512 -c 2 -a 0 -i 26 -k AGT
+ -t 15.892088312 -s 0 -d -1 -p cbr -e 512 -c 2 -a 0 -i 27 -k AGT 
- -t 15.892088312 -s 0 -d -1 -p cbr -e 512 -c 2 -a 0 -i 27 -k AGT
h -t 15.892088312 -s 0 -d -1 -p cbr -e 512 -c 2 -a 0 -i 27 -k AGT
+ -t 15.892088312 -s 0 -d 1 -p cbr -e 532 -c 2 -a 0 -i 27 -k RTR 
- -t 15.892088312 -s 0 -d 1 -p cbr -e 532 -c 2 -a 0 -i 27 -k RTR
h -t 15.892088312 -s 0 -d 1 -p cbr -e 532 -c 2 -a 0 -i 27 -k RTR
+ -t 15.897618312 -s 1 -d 4 -p cbr -e 532 -c 2 -a 0 -i 27 -k RTR 
- -t 15.897618312 -s 1 -d 4 -p cbr -e 532 -c 2 -a 0 -i 27 -k RTR
h -t 15.897618312 -s 1 -d 4 -p cbr -e 532 -c 2 -a 0 -i 27 -k RTR
+ -t 15.903591726 -s 4 -d 7 -p cbr -e 532 -c 2 -a 0 -i 27 -k RTR 
- -t 15.903591726 -s 4 -d 7 -p cbr -e 532 -c 2 -a 0 -i 27 -k RTR
h -t 15.903591726 -s 4 -d 7 -p cbr -e 532 -c 2 -a 0 -i 27 -k RTR
r -t 15.909805140 -s 7 -d 7 -p cbr -e 512 -c 2 -a 0 -i 27 -k AGT
+ -t 15.931462681 -s 0 -d -1 -p cbr -e 512 -c 2 -a 0 -i 28 -k AGT 
- -t 15.931462681 -s 0 -d -1 -p cbr -e 512 -c 2 -a 0 -i 28 -k AGT
h -t 15.931462681 -s 0 -d -1 -p cbr -e 512 -c 2 -a 0 -i 28 -k AGT
+ -t 15.931462681 -s 0 -d 1 -p cbr -e 532 -c 2 -a 0 -i 28 -k RTR 
- -t 15.931462681 -s 0 -d 1 -p cbr -e 532 -c 2 -a 0 -i 28 -k RTR
h -t 15.931462681 -s 0 -d 1 -p cbr -e 532 -c 2 -a 0 -i 28 -k RTR
+ -t 15.937472681 -s 1 -d 4 -p cbr -e 532 -c 2 -a 0 -i 28 -k RTR 
- -t 15.937472681 -s 1 -d 4 -p cbr -e 532 -c 2 -a 0 -i 28 -k RTR
h -t 15.937472681 -s 1 -d 4 -p cbr -e 532 -c 2 -a 0 -i 28 -k RTR
+ -t 15.943186095 -s 4 -d 7 -p cbr -e 532 -c 2 -a 0 -i 28 -k RTR 
- -t 15.943186095 -s 4 -d 7 -p cbr -e 532 -c 2 -a 0 -i 28 -k RTR
h -t 15.943186095 -s 4 -d 7 -p cbr -e 532 -c 2 -a 0 -i 28 -k RTR
r -t 15.949399509 -s 7 -d 7 -p cbr -e 512 -c 2 -a 0 -i 28 -k AGT
+ -t 15.974681808 -s 0 -d -1 -p cbr -e 512 -c 2 -a 0 -i 29 -k AGT 
- -t 15.974681808 -s 0 -d -1 -p cbr -e 512 -c 2 -a 0 -i 29 -k AGT
h -t 15.974681808 -s 0 -d -1 -p cbr -e 512 -c 2 -a 0 -i 29 -k AGT
+ -t 15.974681808 -s 0 -d 1 -p cbr -e 532 -c 2 -a 0 -i 29 -k RTR 
- -t 15.974681808 -s 0 -d 1 -p cbr -e 532 -c 2 -a 0 -i 29 -k RTR
h -t 15.974681808 -s 0 -d 1 -p cbr -e 532 -c 2 -a 0 -i 29 -k RTR
+ -t 15.980711808 -s 1 -d 4 -p cbr -e 532 -c 2 -a 0 -i 29 -k RTR 
- -t 15.980711808 -s 1 -d 4 -p cbr -e 532 -c 2 -a 0 -i 29 -k RTR
h -t 15.980711808 -s 1 -d 4 -p cbr -e 532 -c 2 -a 0 -i 29 -k RTR
+ -t 15.986785222 -s 4 -d 7 -p cbr -e 532 -c 2 -a 0 -i 29 -k RTR 
- -t 15.986785222 -s 4 -d 7 -p cbr -e 532 -c 2 -a 0 -i 29 -k RTR
h -t 15.986785222 -s 4 -d 7 -p cbr -e 532 -c 2 -a 0 -i 29 -k RTR
r -t 15.992958637 -s 7 -d 7 -p cbr -e 512 -c 2 -a 0 -i 29 -k AGT
+ -t 16.043290310 -s 0 -d -1 -p cbr -e 512 -c 2 -a 0 -i 30 -k AGT 
- -t 16.043290310 -s 0 -d -1 -p cbr -e 512 -c 2 -a 0 -i 30 -k AGT
h -t 16.043290310 -s 0 -d -1 -p cbr -e 512 -c 2 -a 0 -i 30 -k AGT
+ -t 16.043290310 -s 0 -d 1 -p cbr -e 532 -c 2 -a 0 -i 30 -k RTR 
- -t 16.043290310 -s 0 -d 1 -p cbr -e 532 -c 2 -a 0 -i 30 -k RTR
h -t 16.043290310 -s 0 -d 1 -p cbr -e 532 -c 2 -a 0 -i 30 -k RTR
+ -t 16.048940310 -s 1 -d 4 -p cbr -e 532 -c 2 -a 0 -i 30 -k RTR 
- -t 16.048940310 -s 1 -d 4 -p cbr -e 532 -c 2 -a 0 -i 30 -k RTR
h -t 16.048940310 -s 1 -d 4 -p cbr -e 532 -c 2 -a 0 -i 30 -k RTR
+ -t 16.054973724 -s 4 -d 7 -p cbr -e 532 -c 2 -a 0 -i 30 -k RTR 
- -t 16.054973724 -s 4 -d 7 -p cbr -e 532 -c 2 -a 0 -i 30 -k RTR
h -t 16.054973724 -s 4 -d 7 -p cbr -e 532 -c 2 -a 0 -i 30 -k RTR
r -t 16.060807138 -s 7 -d 7 -p cbr -e 512 -c 2 -a 0 -i 30 -k AGT
+ -t 16.110716972 -s 0 -d -1 -p cbr -e 512 -c 2 -a 0 -i 31 -k AGT 
- -t 16.110716972 -s 0 -d -1 -p cbr -e 512 -c 2 -a 0 -i 31 -k AGT
h -t 16.110716972 -s 0 -d -1 -p cbr -e 512 -c 2 -a 0 -i 31 -k AGT
+ -t 16.110716972 -s 0 -d 1 -p cbr -e 532 -c 2 -a 0 -i 31 -k RTR 
- -t 16.110716972 -s 0 -d 1 -p cbr -e 532 -c 2 -a 0 -i 31 -k RTR
h -t 16.110716972 -s 0 -d 1 -p cbr -e 532 -c 2 -a 0 -i 31 -k RTR
+ -t 16.116286972 -s 1 -d 4 -p cbr -e 532 -c 2 -a 0 -i 31 -k RTR 
- -t 16.116286972 -s 1 -d 4 -p cbr -e 532 -c 2 -a 0 -i 31 -k RTR
h -t 16.116286972 -s 1 -d 4 -p cbr -e 532 -c 2 -a 0 -i 31 -k RTR
+ -t 16.122580387 -s 4 -d 7 -p cbr -e 532 -c 2 -a 0 -i 31 -k RTR 
- -t 16.122580387 -s 4 -d 7 -p cbr -e 532 -c 2 -a 0 -i 31 -k RTR
h -t 16.122580387 -s 4 -d 7 -p cbr -e 532 -c 2 -a 0 -i 31 -k RTR
r -t 16.128293801 -s 7 -d 7 -p cbr -e 512 -c 2 -a 0 -i 31 -k AGT
+ -t 16.153085028 -s 0 -d -1 -p cbr -e 512 -c 2 -a 0 -i 32 -k AGT 
- -t 16.153085028 -s 0 -d -1 -p cbr -e 512 -c 2 -a 0 -i 32 -k AGT
h -t 16.153085028 -s 0 -d -1 -p cbr -e 512 -c 2 -a 0 -i 32 -k AGT
+ -t 16.153085028 -s 0 -d 1 -p cbr -e 532 -c 2 -a 0 -i 32 -k RTR 
- -t 16.153085028 -s 0 -d 1 -p cbr -e 532 -c 2 -a 0 -i 32 -k RTR
h -t 16.153085028 -s 0 -d 1 -p cbr -e 532 -c 2 -a 0 -i 32 -k RTR
+ -t 16.158535028 -s 1 -d 4 -p cbr -e 532 -c 2 -a 0 -i 32 -k RTR 
- -t 16.158535028 -s 1 -d 4 -p cbr -e 532 -c 2 -a 0 -i 32 -k RTR
h -t 16.158535028 -s 1 -d 4 -p cbr -e 532 -c 2 -a 0 -i 32 -k RTR
+ -t 16.164528442 -s 4 -d 7 -p cbr -e 532 -c 2 -a 0 -i 32 -k RTR 
- -t 16.164528442 -s 4 -d 7 -p cbr -e 532 -c 2 -a 0 -i 32 -k RTR
h -t 16.164528442 -s 4 -d 7 -p cbr -e 532 -c 2 -a 0 -i 32 -k RTR
r -t 16.170461856 -s 7 -d 7 -p cbr -e 512 -c 2 -a 0 -i 32 -k AGT
+ -t 16.193117089 -s 0 -d -1 -p cbr -e 512 -c 2 -a 0 -i 33 -k AGT 
- -t 16.193117089 -s 0 -d -1 -p cbr -e 512 -c 2 -a 0 -i 33 -k AGT
h -t 16.193117089 -s 0 -d -1 -p cbr -e 512 -c 2 -a 0 -i 33 -k AGT
+ -t 16.193117089 -s 0 -d 1 -p cbr -e 532 -c 2 -a 0 -i 33 -k RTR 
- -t 16.193117089 -s 0 -d 1 -p cbr -e 532 -c 2 -a 0 -i 33 -k RTR
h -t 16.193117089 -s 0 -d 1 -p cbr -e 532 -c 2 -a 0 -i 33 -k RTR
+ -t 16.198647089 -s 1 -d 4 -p cbr -e 532 -c 2 -a 0 -i 33 -k RTR 
- -t 16.198647089 -s 1 -d 4 -p cbr -e 532 -c 2 -a 0 -i 33 -k RTR
h -t 16.198647089 -s 1 -d 4 -p cbr -e 532 -c 2 -a 0 -i 33 -k RTR
+ -t 16.204480503 -s 4 -d 7 -p cbr -e 532 -c 2 -a 0 -i 33 -k RTR 
- -t 16.204480503 -s 4 -d 7 -p cbr -e 532 -c 2 -a 0 -i 33 -k RTR
h -t 16.204480503 -s 4 -d 7 -p cbr -e 532 -c 2 -a 0 -i 33 -k RTR
r -t 16.210473917 -s 7 -d 7 -p cbr -e 512 -c 2 -a 0 -i 33 -k AGT
+ -t 16.245990578 -s 0 -d -1 -p cbr -e 512 -c 2 -a 0 -i 34 -k AGT 
- -t 16.245990578 -s 0 -d -1 -p cbr -e 512 -c 2 -a 0 -i 34 -k AGT
h -t 16.245990578 -s 0 -d -1 -p cbr -e 512 -c 2 -a 0 -i 34 -k AGT
+ -t 16.245990578 -s 0 -d 1 -p cbr -e 532 -c 2 -a 0 -i 34 -k RTR 
- -t 16.245990578 -s 0 -d 1 -p cbr -e 532 -c 2 -a 0 -i 34 -k RTR
h -t 16.245990578 -s 0 -d 1 -p cbr -e 532 -c 2 -a 0 -i 34 -k RTR
+ -t 16.251480578 -s 1 -d 4 -p cbr -e 532 -c 2 -a 0 -i 34 -k RTR 
- -t 16.251480578 -s 1 -d 4 -p cbr -e 532 -c 2 -a 0 -i 34 -k RTR
h -t 16.251480578 -s 1 -d 4 -p cbr -e 532 -c 2 -a 0 -i 34 -k RTR
+ -t 16.257733992 -s 4 -d 7 -p cbr -e 532 -c 2 -a 0 -i 34 -k RTR 
- -t 16.257733992 -s 4 -d 7 -p cbr -e 532 -c 2 -a 0 -i 34 -k RTR
h -t 16.257733992 -s 4 -d 7 -p cbr -e 532 -c 2 -a 0 -i 34 -k RTR
r -t 16.263687406 -s 7 -d 7 -p cbr -e 512 -c 2 -a 0 -i 34 -k AGT
+ -t 16.315428181 -s 0 -d -1 -p cbr -e 512 -c 2 -a 0 -i 35 -k AGT 
- -t 16.315428181 -s 0 -d -1 -p cbr -e 512 -c 2 -a 0 -i 35 -k AGT
h -t 16.315428181 -s 0 -d -1 -p cbr -e 512 -c 2 -a 0 -i 35 -k AGT
+ -t 16.315428181 -s 0 -d 1 -p cbr -e 532 -c 2 -a 0 -i 35 -k RTR 
- -t 16.315428181 -s 0 -d 1 -p cbr -e 532 -c 2 -a 0 -i 35 -k RTR
h -t 16.315428181 -s 0 -d 1 -p cbr -e 532 -c 2 -a 0 -i 35 -k RTR
+ -t 16.321158181 -s 1 -d 4 -p cbr -e 532 -c 2 -a 0 -i 35 -k RTR 
- -t 16.321158181 -s 1 -d 4 -p cbr -e 532 -c 2 -a 0 -i 35 -k RTR
h -t 16.321158181 -s 1 -d 4 -p cbr -e 532 -c 2 -a 0 -i 35 -k RTR
+ -t 16.327291595 -s 4 -d 7 -p cbr -e 532 -c 2 -a 0 -i 35 -k RTR 
- -t 16.327291595 -s 4 -d 7 -p cbr -e 532 -c 2 -a 0 -i 35 -k RTR
h -t 16.327291595 -s 4 -d 7 -p cbr -e 532 -c 2 -a 0 -i 35 -k RTR
r -t 16.333465009 -s 7 -d 7 -p cbr -e 512 -c 2 -a 0 -i 35 -k AGT
+ -t 16.367910189 -s 0 -d -1 -p cbr -e 512 -c 2 -a 0 -i 36 -k AGT 
- -t 16.367910189 -s 0 -d -1 -p cbr -e 512 -c 2 -a 0 -i 36 -k AGT
h -t 16.367910189 -s 0 -d -1 -p cbr -e 512 -c 2 -a 0 -i 36 -k AGT
+ -t 16.367910189 -s 0 -d 1 -p cbr -e 532 -c 2 -a 0 -i 36 -k RTR 
- -t 16.367910189 -s 0 -d 1 -p cbr -e 532 -c 2 -a 0 -i 36 -k RTR
h -t 16.367910189 -s 0 -d 1 -p cbr -e 532 -c 2 -a 0 -i 36 -k RTR
+ -t 16.373360189 -s 1 -d 4 -p cbr -e 532 -c 2 -a 0 -i 36 -k RTR 
- -t 16.373360189 -s 1 -d 4 -p cbr -e 532 -c 2 -a 0 -i 36 -k RTR
h -t 16.373360189 -s 1 -d 4 -p cbr -e 532 -c 2 -a 0 -i 36 -k RTR
+ -t 16.379093603 -s 4 -d 7 -p cbr -e 532 -c 2 -a 0 -i 36 -k RTR 
- -t 16.379093603 -s 4 -d 7 -p cbr -e 532 -c 2 -a 0 -i 36 -k RTR
h -t 16.379093603 -s 4 -d 7 -p cbr -e 532 -c 2 -a 0 -i 36 -k RTR
r -t 16.385047018 -s 7 -d 7 -p cbr -e 512 -c 2 -a 0 -i 36 -k AGT
+ -t 16.435017159 -s 0 -d -1 -p cbr -e 512 -c 2 -a 0 -i 37 -k AGT 
- -t 16.435017159 -s 0 -d -1 -p cbr -e 512 -c 2 -a 0 -i 37 -k AGT
h -t 16.435017159 -s 0 -d -1 -p cbr -e 512 -c 2 -a 0 -i 37 -k AGT
+ -t 16.435017159 -s 0 -d 1 -p cbr -e 532 -c 2 -a 0 -i 37 -k RTR 
- -t 16.435017159 -s 0 -d 1 -p cbr -e 532 -c 2 -a 0 -i 37 -k RTR
h -t 16.435017159 -s 0 -d 1 -p cbr -e 532 -c 2 -a 0 -i 37 -k RTR
+ -t 16.440867159 -s 1 -d 4 -p cbr -e 532 -c 2 -a 0 -i 37 -k RTR 
- -t 16.440867159 -s 1 -d 4 -p cbr -e 532 -c 2 -a 0 -i 37 -k RTR
h -t 16.440867159 -s 1 -d 4 -p cbr -e 532 -c 2 -a 0 -i 37 -k RTR
+ -t 16.447060573 -s 4 -d 7 -p cbr -e 532 -c 2 -a 0 -i 37 -k RTR 
- -t 16.447060573 -s 4 -d 7 -p cbr -e 532 -c 2 -a 0 -i 37 -k RTR
h -t 16.447060573 -s 4 -d 7 -p cbr -e 532 -c 2 -a 0 -i 37 -k RTR
r -t 16.453233987 -s 7 -d 7 -p cbr -e 512 -c 2 -a 0 -i 37 -k AGT
+ -t 16.471939406 -s 0 -d -1 -p cbr -e 512 -c 2 -a 0 -i 38 -k AGT 
- -t 16.471939406 -s 0 -d -1 -p cbr -e 512 -c 2 -a 0 -i 38 -k AGT
h -t 16.471939406 -s 0 -d -1 -p cbr -e 512 -c 2 -a 0 -i 38 -k AGT
+ -t 16.471939406 -s 0 -d 1 -p cbr -e 532 -c 2 -a 0 -i 38 -k RTR 
- -t 16.471939406 -s 0 -d 1 -p cbr -e 532 -c 2 -a 0 -i 38 -k RTR
h -t 16.471939406 -s 0 -d 1 -p cbr -e 532 -c 2 -a 0 -i 38 -k RTR
+ -t 16.477909406 -s 1 -d 4 -p cbr -e 532 -c 2 -a 0 -i 38 -k RTR 
- -t 16.477909406 -s 1 -d 4 -p cbr -e 532 -c 2 -a 0 -i 38 -k RTR
h -t 16.477909406 -s 1 -d 4 -p cbr -e 532 -c 2 -a 0 -i 38 -k RTR