Sconfig 0.00000 tap: on snoop: rts? on errs? on
Sconfig 0.00000 salvage: on !bd replies? on
Sconfig 0.00000 grat error: on grat reply: on
Sconfig 0.00000 $reply for props: on ring 0 search: on
Sconfig 0.00000 using MOBICACHE
s 15.000000000 _0_ AGT  --- 0 cbr 512 [0 0 0 0] ------- [0:0 10:0 32 0] [0] 0 0
r 15.000000000 _0_ RTR  --- 0 cbr 512 [0 0 0 0] ------- [0:0 10:0 32 0] [0] 0 0
s 15.009164208 _0_ RTR  --- 1 DSR 32 [0 0 0 0] ------- [0:255 10:255 32 0] 1 [1 1] [0 1 0 0->0] [0 0 0 0->0]
r 15.010396874 _3_ RTR  --- 1 DSR 32 [0 ffffffff 0 800] ------- [0:255 10:255 32 0] 1 [1 1] [0 1 0 0->0] [0 0 0 0->0]
r 15.010396874 _1_ RTR  --- 1 DSR 32 [0 ffffffff 0 800] ------- [0:255 10:255 32 0] 1 [1 1] [0 1 0 0->0] [0 0 0 0->0]
s 15.044022529 _0_ AGT  --- 3 cbr 512 [0 0 0 0] ------- [0:0 10:0 32 0] [1] 0 0
r 15.044022529 _0_ RTR  --- 3 cbr 512 [0 0 0 0] ------- [0:0 10:0 32 0] [1] 0 0
s 15.052696224 _0_ RTR  --- 4 DSR 32 [0 0 0 0] ------- [0:255 10:255 32 0] 1 [1 2] [0 2 0 0->16] [0 0 0 0->0]
r 15.053768891 _3_ RTR  --- 4 DSR 32 [0 ffffffff 0 800] ------- [0:255 10:255 32 0] 1 [1 2] [0 2 0 0->16] [0 0 0 0->0]
r 15.053768891 _1_ RTR  --- 4 DSR 32 [0 ffffffff 0 800] ------- [0:255 10:255 32 0] 1 [1 2] [0 2 0 0->16] [0 0 0 0->0]
f 15.057020033 _1_ RTR  --- 4 DSR 48 [0 ffffffff 0 800] ------- [0:255 10:255 32 0] 2 [1 2] [0 2 0 0->16] [0 0 0 0->0]
r 15.058020700 _0_ RTR  --- 4 DSR 48 [0 ffffffff 1 800] ------- [0:255 10:255 32 0] 2 [1 2] [0 2 0 0->16] [0 0 0 0->0]
r 15.058020700 _4_ RTR  --- 4 DSR 48 [0 ffffffff 1 800] ------- [0:255 10:255 32 0] 2 [1 2] [0 2 0 0->16] [0 0 0 0->0]
r 15.058020700 _2_ RTR  --- 4 DSR 48 [0 ffffffff 1 800] ------- [0:255 10:255 32 0] 2 [1 2] [0 2 0 0->16] [0 0 0 0->0]
f 15.058186528 _3_ RTR  --- 4 DSR 48 [0 ffffffff 0 800] ------- [0:255 10:255 32 0] 2 [1 2] [0 2 0 0->16] [0 0 0 0->0]
r 15.059335309 _6_ RTR  --- 4 DSR 48 [0 ffffffff 3 800] ------- [0:255 10:255 32 0] 2 [1 2] [0 2 0 0->16] [0 0 0 0->0]
r 15.059335643 _0_ RTR  --- 4 DSR 48 [0 ffffffff 3 800] ------- [0:255 10:255 32 0] 2 [1 2] [0 2 0 0->16] [0 0 0 0->0]
r 15.059335643 _9_ RTR  --- 4 DSR 48 [0 ffffffff 3 800] ------- [0:255 10:255 32 0] 2 [1 2] [0 2 0 0->16] [0 0 0 0->0]
r 15.059335643 _4_ RTR  --- 4 DSR 48 [0 ffffffff 3 800] ------- [0:255 10:255 32 0] 2 [1 2] [0 2 0 0->16] [0 0 0 0->0]
r 15.059335721 _7_ RTR  --- 4 DSR 48 [0 ffffffff 3 800] ------- [0:255 10:255 32 0] 2 [1 2] [0 2 0 0->16] [0 0 0 0->0]
f 15.059831591 _7_ RTR  --- 4 DSR 68 [0 ffffffff 3 800] ------- [0:255 10:255 32 0] 3 [1 2] [0 2 0 0->16] [0 0 0 0->0]
f 15.060586448 _2_ RTR  --- 4 DSR 68 [0 ffffffff 1 800] ------- [0:255 10:255 32 0] 3 [1 2] [0 2 0 0->16] [0 0 0 0->0]
r 15.060991924 _4_ RTR  --- 4 DSR 68 [0 ffffffff 7 800] ------- [0:255 10:255 32 0] 3 [1 2] [0 2 0 0->16] [0 0 0 0->0]
r 15.060991924 _10_ RTR  --- 4 DSR 68 [0 ffffffff 7 800] ------- [0:255 10:255 32 0] 3 [1 2] [0 2 0 0->16] [0 0 0 0->0]
r 15.060992257 _6_ RTR  --- 4 DSR 68 [0 ffffffff 7 800] ------- [0:255 10:255 32 0] 3 [1 2] [0 2 0 0->16] [0 0 0 0->0]
r 15.060992257 _8_ RTR  --- 4 DSR 68 [0 ffffffff 7 800] ------- [0:255 10:255 32 0] 3 [1 2] [0 2 0 0->16] [0 0 0 0->0]
r 15.060992257 _12_ RTR  --- 4 DSR 68 [0 ffffffff 7 800] ------- [0:255 10:255 32 0] 3 [1 2] [0 2 0 0->16] [0 0 0 0->0]
r 15.060992336 _9_ RTR  --- 4 DSR 68 [0 ffffffff 7 800] ------- [0:255 10:255 32 0] 3 [1 2] [0 2 0 0->16] [0 0 0 0->0]
r 15.060992336 _3_ RTR  --- 4 DSR 68 [0 ffffffff 7 800] ------- [0:255 10:255 32 0] 3 [1 2] [0 2 0 0->16] [0 0 0 0->0]
r 15.060992336 _5_ RTR  --- 4 DSR 68 [0 ffffffff 7 800] ------- [0:255 10:255 32 0] 3 [1 2] [0 2 0 0->16] [0 0 0 0->0]
r 15.060992336 _11_ RTR  --- 4 DSR 68 [0 ffffffff 7 800] ------- [0:255 10:255 32 0] 3 [1 2] [0 2 0 0->16] [0 0 0 0->0]
f 15.061747218 _6_ RTR  --- 4 DSR 68 [0 ffffffff 3 800] ------- [0:255 10:255 32 0] 3 [1 2] [0 2 0 0->16] [0 0 0 0->0]
f 15.061876495 _11_ RTR  --- 4 DSR 92 [0 ffffffff 7 800] ------- [0:255 10:255 32 0] 4 [1 2] [0 2 0 0->16] [0 0 0 0->0]
f 15.061957130 _9_ RTR  --- 4 DSR 68 [0 ffffffff 3 800] ------- [0:255 10:255 32 0] 3 [1 2] [0 2 0 0->16] [0 0 0 0->0]
r 15.062407459 _1_ RTR  --- 4 DSR 68 [0 ffffffff 2 800] ------- [0:255 10:255 32 0] 3 [1 2] [0 2 0 0->16] [0 0 0 0->0]
r 15.062407459 _5_ RTR  --- 4 DSR 68 [0 ffffffff 2 800] ------- [0:255 10:255 32 0] 3 [1 2] [0 2 0 0->16] [0 0 0 0->0]
f 15.063304855 _4_ RTR  --- 4 DSR 68 [0 ffffffff 1 800] ------- [0:255 10:255 32 0] 3 [1 2] [0 2 0 0->16] [0 0 0 0->0]
f 15.063696102 _12_ RTR  --- 4 DSR 92 [0 ffffffff 7 800] ------- [0:255 10:255 32 0] 4 [1 2] [0 2 0 0->16] [0 0 0 0->0]
s 15.064428860 _10_ RTR  --- 5 DSR 60 [0 0 0 0] ------- [10:255 0:255 254 7] 4 [0 2] [1 2 4 0->10] [0 0 0 0->0]
r 15.064988102 _8_ RTR  --- 4 DSR 92 [0 ffffffff c 800] ------- [0:255 10:255 32 0] 4 [1 2] [0 2 0 0->16] [0 0 0 0->0]
r 15.064988435 _11_ RTR  --- 4 DSR 92 [0 ffffffff c 800] ------- [0:255 10:255 32 0] 4 [1 2] [0 2 0 0->16] [0 0 0 0->0]
r 15.064988435 _5_ RTR  --- 4 DSR 92 [0 ffffffff c 800] ------- [0:255 10:255 32 0] 4 [1 2] [0 2 0 0->16] [0 0 0 0->0]
r 15.064988769 _7_ RTR  --- 4 DSR 92 [0 ffffffff c 800] ------- [0:255 10:255 32 0] 4 [1 2] [0 2 0 0->16] [0 0 0 0->0]
r 15.064988847 _10_ RTR  --- 4 DSR 92 [0 ffffffff c 800] ------- [0:255 10:255 32 0] 4 [1 2] [0 2 0 0->16] [0 0 0 0->0]
r 15.064988847 _4_ RTR  --- 4 DSR 92 [0 ffffffff c 800] ------- [0:255 10:255 32 0] 4 [1 2] [0 2 0 0->16] [0 0 0 0->0]
r 15.066359181 _7_ RTR  --- 4 DSR 68 [0 ffffffff 4 800] ------- [0:255 10:255 32 0] 3 [1 2] [0 2 0 0->16] [0 0 0 0->0]
r 15.066359514 _1_ RTR  --- 4 DSR 68 [0 ffffffff 4 800] ------- [0:255 10:255 32 0] 3 [1 2] [0 2 0 0->16] [0 0 0 0->0]
r 15.066359514 _3_ RTR  --- 4 DSR 68 [0 ffffffff 4 800] ------- [0:255 10:255 32 0] 3 [1 2] [0 2 0 0->16] [0 0 0 0->0]
r 15.066359514 _10_ RTR  --- 4 DSR 68 [0 ffffffff 4 800] ------- [0:255 10:255 32 0] 3 [1 2] [0 2 0 0->16] [0 0 0 0->0]
r 15.066359514 _5_ RTR  --- 4 DSR 68 [0 ffffffff 4 800] ------- [0:255 10:255 32 0] 3 [1 2] [0 2 0 0->16] [0 0 0 0->0]
r 15.066359593 _6_ RTR  --- 4 DSR 68 [0 ffffffff 4 800] ------- [0:255 10:255 32 0] 3 [1 2] [0 2 0 0->16] [0 0 0 0->0]
r 15.066359593 _8_ RTR  --- 4 DSR 68 [0 ffffffff 4 800] ------- [0:255 10:255 32 0] 3 [1 2] [0 2 0 0->16] [0 0 0 0->0]
r 15.066359593 _12_ RTR  --- 4 DSR 68 [0 ffffffff 4 800] ------- [0:255 10:255 32 0] 3 [1 2] [0 2 0 0->16] [0 0 0 0->0]
r 15.068142514 _7_ RTR  --- 5 DSR 60 [13a 7 a 800] ------- [10:255 0:255 254 7] 4 [0 2] [1 2 4 0->10] [0 0 0 0->0]
f 15.068142514 _7_ RTR  --- 5 DSR 60 [13a 7 a 800] ------- [10:255 0:255 253 3] 4 [0 2] [1 2 4 0->10] [0 0 0 0->0]
f 15.069214581 _5_ RTR  --- 4 DSR 92 [0 ffffffff 7 800] ------- [0:255 10:255 32 0] 4 [1 2] [0 2 0 0->16] [0 0 0 0->0]
r 15.069679593 _8_ RTR  --- 4 DSR 92 [0 ffffffff b 800] ------- [0:255 10:255 32 0] 4 [1 2] [0 2 0 0->16] [0 0 0 0->0]
r 15.069679593 _12_ RTR  --- 4 DSR 92 [0 ffffffff b 800] ------- [0:255 10:255 32 0] 4 [1 2] [0 2 0 0->16] [0 0 0 0->0]
r 15.069679926 _5_ RTR  --- 4 DSR 92 [0 ffffffff b 800] ------- [0:255 10:255 32 0] 4 [1 2] [0 2 0 0->16] [0 0 0 0->0]
r 15.069679926 _10_ RTR  --- 4 DSR 92 [0 ffffffff b 800] ------- [0:255 10:255 32 0] 4 [1 2] [0 2 0 0->16] [0 0 0 0->0]
r 15.069680005 _7_ RTR  --- 4 DSR 92 [0 ffffffff b 800] ------- [0:255 10:255 32 0] 4 [1 2] [0 2 0 0->16] [0 0 0 0->0]
f 15.070160092 _8_ RTR  --- 4 DSR 92 [0 ffffffff 7 800] ------- [0:255 10:255 32 0] 4 [1 2] [0 2 0 0->16] [0 0 0 0->0]
s 15.071428057 _10_ RTR  --- 7 DSR 60 [0 0 0 0] ------- [10:255 0:255 254 4] 4 [0 2] [1 2 4 0->10] [0 0 0 0->0]
r 15.071484241 _3_ RTR  --- 5 DSR 60 [13a 3 7 800] ------- [10:255 0:255 253 3] 4 [0 2] [1 2 4 0->10] [0 0 0 0->0]
f 15.071484241 _3_ RTR  --- 5 DSR 60 [13a 3 7 800] ------- [10:255 0:255 252 0] 4 [0 2] [1 2 4 0->10] [0 0 0 0->0]
s 15.072746430 _10_ RTR  --- 8 DSR 68 [0 0 0 0] ------- [10:255 0:255 254 11] 5 [0 2] [1 2 5 0->10] [0 0 0 0->0]
r 15.073522241 _0_ RTR  --- 5 DSR 60 [13a 0 3 800] ------- [10:255 0:255 252 0] 4 [0 2] [1 2 4 0->10] [0 0 0 0->0]
SFESTs 15.073522241 _0_ 0 [0 -> 10] 1(1) to 3 [0 |3 7 10 ]
SFESTs 15.073522241 _0_ 3 [0 -> 10] 1(1) to 3 [0 |3 7 10 ]
s 15.073522241 _0_ RTR  --- 0 cbr 556 [0 0 0 0] ------- [0:0 10:0 32 3] [0] 0 0
s 15.074375085 _10_ RTR  --- 6 DSR 68 [0 0 0 0] ------- [10:255 0:255 254 12] 5 [0 2] [1 2 5 0->10] [0 0 0 0->0]
r 15.079628241 _3_ RTR  --- 0 cbr 556 [13a 3 0 800] ------- [0:0 10:0 32 3] [0] 1 0
f 15.079628241 _3_ RTR  --- 0 cbr 556 [13a 3 0 800] ------- [0:0 10:0 31 7] [0] 1 0
r 15.081162907 _3_ RTR  --- 4 DSR 68 [0 ffffffff 6 800] ------- [0:255 10:255 32 0] 3 [1 2] [0 2 0 0->16] [0 0 0 0->0]
r 15.081162907 _9_ RTR  --- 4 DSR 68 [0 ffffffff 6 800] ------- [0:255 10:255 32 0] 3 [1 2] [0 2 0 0->16] [0 0 0 0->0]
r 15.081163241 _7_ RTR  --- 4 DSR 68 [0 ffffffff 6 800] ------- [0:255 10:255 32 0] 3 [1 2] [0 2 0 0->16] [0 0 0 0->0]
r 15.081163319 _4_ RTR  --- 4 DSR 68 [0 ffffffff 6 800] ------- [0:255 10:255 32 0] 3 [1 2] [0 2 0 0->16] [0 0 0 0->0]
r 15.081163319 _10_ RTR  --- 4 DSR 68 [0 ffffffff 6 800] ------- [0:255 10:255 32 0] 3 [1 2] [0 2 0 0->16] [0 0 0 0->0]
r 15.082807319 _4_ RTR  --- 7 DSR 60 [13a 4 a 800] ------- [10:255 0:255 254 4] 4 [0 2] [1 2 4 0->10] [0 0 0 0->0]
f 15.082807319 _4_ RTR  --- 7 DSR 60 [13a 4 a 800] ------- [10:255 0:255 253 1] 4 [0 2] [1 2 4 0->10] [0 0 0 0->0]
s 15.084884190 _10_ RTR  --- 9 DSR 60 [0 0 0 0] ------- [10:255 0:255 254 6] 4 [0 2] [1 2 4 0->10] [0 0 0 0->0]
r 15.088803832 _7_ RTR  --- 0 cbr 556 [13a 7 3 800] ------- [0:0 10:0 31 7] [0] 2 0
f 15.088803832 _7_ RTR  --- 0 cbr 556 [13a 7 3 800] ------- [0:0 10:0 30 10] [0] 2 0
s 15.089937452 _0_ AGT  --- 10 cbr 512 [0 0 0 0] ------- [0:0 10:0 32 0] [2] 0 0
r 15.089937452 _0_ RTR  --- 10 cbr 512 [0 0 0 0] ------- [0:0 10:0 32 0] [2] 0 0
SFESTs 15.089937452 _0_ 10 [0 -> 10] 1(1) to 3 [0 |3 7 10 ]
s 15.089937452 _0_ RTR  --- 10 cbr 556 [0 0 0 0] ------- [0:0 10:0 32 3] [2] 0 0
r 15.094888832 _10_ RTR  --- 0 cbr 556 [13a a 7 800] ------- [0:0 10:0 30 10] [0] 3 0
r 15.094888832 _10_ AGT  --- 0 cbr 512 [13a a 7 800] ------- [0:0 10:0 30 10] [0] 3 0
r 15.096987498 _1_ RTR  --- 7 DSR 60 [13a 1 4 800] ------- [10:255 0:255 253 1] 4 [0 2] [1 2 4 0->10] [0 0 0 0->0]
f 15.096987498 _1_ RTR  --- 7 DSR 60 [13a 1 4 800] ------- [10:255 0:255 252 0] 4 [0 2] [1 2 4 0->10] [0 0 0 0->0]
r 15.103083774 _3_ RTR  --- 10 cbr 556 [13a 3 0 800] ------- [0:0 10:0 32 3] [2] 1 0
f 15.103083774 _3_ RTR  --- 10 cbr 556 [13a 3 0 800] ------- [0:0 10:0 31 7] [2] 1 0
s 15.103522241 _0_ RTR  --- 3 cbr 556 [0 0 0 0] ------- [0:0 10:0 32 3] [1] 0 0
r 15.109344241 _3_ RTR  --- 3 cbr 556 [13a 3 0 800] ------- [0:0 10:0 32 3] [1] 1 0
f 15.109344241 _3_ RTR  --- 3 cbr 556 [13a 3 0 800] ------- [0:0 10:0 31 7] [1] 1 0
r 15.115350477 _7_ RTR  --- 10 cbr 556 [13a 7 3 800] ------- [0:0 10:0 31 7] [2] 2 0
f 15.115350477 _7_ RTR  --- 10 cbr 556 [13a 7 3 800] ------- [0:0 10:0 30 10] [2] 2 0
r 15.121335477 _10_ RTR  --- 10 cbr 556 [13a a 7 800] ------- [0:0 10:0 30 10] [2] 3 0
r 15.121335477 _10_ AGT  --- 10 cbr 512 [13a a 7 800] ------- [0:0 10:0 30 10] [2] 3 0
r 15.123377713 _12_ RTR  --- 6 DSR 68 [13a c a 800] ------- [10:255 0:255 254 12] 5 [0 2] [1 2 5 0->10] [0 0 0 0->0]
f 15.123377713 _12_ RTR  --- 6 DSR 68 [13a c a 800] ------- [10:255 0:255 253 7] 5 [0 2] [1 2 5 0->10] [0 0 0 0->0]
r 15.125416694 _6_ RTR  --- 9 DSR 60 [13a 6 a 800] ------- [10:255 0:255 254 6] 4 [0 2] [1 2 4 0->10] [0 0 0 0->0]
f 15.125416694 _6_ RTR  --- 9 DSR 60 [13a 6 a 800] ------- [10:255 0:255 253 3] 4 [0 2] [1 2 4 0->10] [0 0 0 0->0]
r 15.131413128 _7_ RTR  --- 3 cbr 556 [13a 7 3 800] ------- [0:0 10:0 31 7] [1] 2 0
f 15.131413128 _7_ RTR  --- 3 cbr 556 [13a 7 3 800] ------- [0:0 10:0 30 10] [1] 2 0
r 15.137338128 _10_ RTR  --- 3 cbr 556 [13a a 7 800] ------- [0:0 10:0 30 10] [1] 3 0
r 15.137338128 _10_ AGT  --- 3 cbr 512 [13a a 7 800] ------- [0:0 10:0 30 10] [1] 3 0
r 15.138914873 _12_ RTR  --- 4 DSR 92 [0 ffffffff 8 800] ------- [0:255 10:255 32 0] 4 [1 2] [0 2 0 0->16] [0 0 0 0->0]
r 15.138915206 _5_ RTR  --- 4 DSR 92 [0 ffffffff 8 800] ------- [0:255 10:255 32 0] 4 [1 2] [0 2 0 0->16] [0 0 0 0->0]
r 15.138915206 _11_ RTR  --- 4 DSR 92 [0 ffffffff 8 800] ------- [0:255 10:255 32 0] 4 [1 2] [0 2 0 0->16] [0 0 0 0->0]
r 15.140217540 _8_ RTR  --- 4 DSR 92 [0 ffffffff 5 800] ------- [0:255 10:255 32 0] 4 [1 2] [0 2 0 0->16] [0 0 0 0->0]
r 15.140217540 _12_ RTR  --- 4 DSR 92 [0 ffffffff 5 800] ------- [0:255 10:255 32 0] 4 [1 2] [0 2 0 0->16] [0 0 0 0->0]
r 15.140217873 _2_ RTR  --- 4 DSR 92 [0 ffffffff 5 800] ------- [0:255 10:255 32 0] 4 [1 2] [0 2 0 0->16] [0 0 0 0->0]
r 15.140217873 _4_ RTR  --- 4 DSR 92 [0 ffffffff 5 800] ------- [0:255 10:255 32 0] 4 [1 2] [0 2 0 0->16] [0 0 0 0->0]
r 15.140217873 _11_ RTR  --- 4 DSR 92 [0 ffffffff 5 800] ------- [0:255 10:255 32 0] 4 [1 2] [0 2 0 0->16] [0 0 0 0->0]
r 15.140217952 _7_ RTR  --- 4 DSR 92 [0 ffffffff 5 800] ------- [0:255 10:255 32 0] 4 [1 2] [0 2 0 0->16] [0 0 0 0->0]
r 15.141925540 _7_ RTR  --- 6 DSR 68 [13a 7 c 800] ------- [10:255 0:255 253 7] 5 [0 2] [1 2 5 0->10] [0 0 0 0->0]
f 15.141925540 _7_ RTR  --- 6 DSR 68 [13a 7 c 800] ------- [10:255 0:255 252 3] 5 [0 2] [1 2 5 0->10] [0 0 0 0->0]
r 15.143967873 _11_ RTR  --- 8 DSR 68 [13a b a 800] ------- [10:255 0:255 254 11] 5 [0 2] [1 2 5 0->10] [0 0 0 0->0]
f 15.143967873 _11_ RTR  --- 8 DSR 68 [13a b a 800] ------- [10:255 0:255 253 7] 5 [0 2] [1 2 5 0->10] [0 0 0 0->0]
s 15.144815555 _0_ AGT  --- 11 cbr 512 [0 0 0 0] ------- [0:0 10:0 32 0] [3] 0 0
r 15.144815555 _0_ RTR  --- 11 cbr 512 [0 0 0 0] ------- [0:0 10:0 32 0] [3] 0 0
SFs 15.144815555 _0_ 11 [0 -> 10] 1(0) to 3 
s 15.144815555 _0_ RTR  --- 11 cbr 532 [0 0 0 0] ------- [0:0 10:0 32 3] [3] 0 0
r 15.148502345 _3_ RTR  --- 6 DSR 68 [13a 3 7 800] ------- [10:255 0:255 252 3] 5 [0 2] [1 2 5 0->10] [0 0 0 0->0]
f 15.148502345 _3_ RTR  --- 6 DSR 68 [13a 3 7 800] ------- [10:255 0:255 251 0] 5 [0 2] [1 2 5 0->10] [0 0 0 0->0]
r 15.150824345 _0_ RTR  --- 6 DSR 68 [13a 0 3 800] ------- [10:255 0:255 251 0] 5 [0 2] [1 2 5 0->10] [0 0 0 0->0]
r 15.156578345 _3_ RTR  --- 11 cbr 532 [13a 3 0 800] ------- [0:0 10:0 32 3] [3] 1 0
SFf 15.156578345 _3_ 11 [0 -> 10] 1 to 7
f 15.156578345 _3_ RTR  --- 11 cbr 532 [13a 3 0 800] ------- [0:0 10:0 31 7] [3] 1 0
r 15.158665679 _3_ RTR  --- 9 DSR 60 [13a 3 6 800] ------- [10:255 0:255 253 3] 4 [0 2] [1 2 4 0->10] [0 0 0 0->0]
f 15.158665679 _3_ RTR  --- 9 DSR 60 [13a 3 6 800] ------- [10:255 0:255 252 0] 4 [0 2] [1 2 4 0->10] [0 0 0 0->0]
r 15.164659915 _7_ RTR  --- 11 cbr 532 [13a 7 3 800] ------- [0:0 10:0 31 7] [3] 2 0
SFf 15.164659915 _7_ 11 [0 -> 10] 1 to 10
f 15.164659915 _7_ RTR  --- 11 cbr 532 [13a 7 3 800] ------- [0:0 10:0 30 10] [3] 2 0
r 15.170632915 _10_ RTR  --- 11 cbr 532 [13a a 7 800] ------- [0:0 10:0 30 10] [3] 3 0
r 15.170632915 _10_ AGT  --- 11 cbr 512 [13a a 7 800] ------- [0:0 10:0 30 10] [3] 3 0
r 15.173116248 _0_ RTR  --- 7 DSR 60 [13a 0 1 800] ------- [10:255 0:255 252 0] 4 [0 2] [1 2 4 0->10] [0 0 0 0->0]
r 15.175164524 _0_ RTR  --- 9 DSR 60 [13a 0 3 800] ------- [10:255 0:255 252 0] 4 [0 2] [1 2 4 0->10] [0 0 0 0->0]
r 15.178817584 _7_ RTR  --- 8 DSR 68 [13a 7 b 800] ------- [10:255 0:255 253 7] 5 [0 2] [1 2 5 0->10] [0 0 0 0->0]
f 15.178817584 _7_ RTR  --- 8 DSR 68 [13a 7 b 800] ------- [10:255 0:255 252 3] 5 [0 2] [1 2 5 0->10] [0 0 0 0->0]
r 15.181179820 _3_ RTR  --- 8 DSR 68 [13a 3 7 800] ------- [10:255 0:255 252 3] 5 [0 2] [1 2 5 0->10] [0 0 0 0->0]
f 15.181179820 _3_ RTR  --- 8 DSR 68 [13a 3 7 800] ------- [10:255 0:255 251 0] 5 [0 2] [1 2 5 0->10] [0 0 0 0->0]
r 15.183361820 _0_ RTR  --- 8 DSR 68 [13a 0 3 800] ------- [10:255 0:255 251 0] 5 [0 2] [1 2 5 0->10] [0 0 0 0->0]
s 15.198785786 _0_ AGT  --- 12 cbr 512 [0 0 0 0] ------- [0:0 10:0 32 0] [4] 0 0
r 15.198785786 _0_ RTR  --- 12 cbr 512 [0 0 0 0] ------- [0:0 10:0 32 0] [4] 0 0
SFs 15.198785786 _0_ 12 [0 -> 10] 1(0) to 3 
s 15.198785786 _0_ RTR  --- 12 cbr 532 [0 0 0 0] ------- [0:0 10:0 32 3] [4] 0 0
r 15.204755786 _3_ RTR  --- 12 cbr 532 [13a 3 0 800] ------- [0:0 10:0 32 3] [4] 1 0
SFf 15.204755786 _3_ 12 [0 -> 10] 1 to 7
f 15.204755786 _3_ RTR  --- 12 cbr 532 [13a 3 0 800] ------- [0:0 10:0 31 7] [4] 1 0
r 15.210610022 _7_ RTR  --- 12 cbr 532 [13a 7 3 800] ------- [0:0 10:0 31 7] [4] 2 0
SFf 15.210610022 _7_ 12 [0 -> 10] 1 to 10
f 15.210610022 _7_ RTR  --- 12 cbr 532 [13a 7 3 800] ------- [0:0 10:0 30 10] [4] 2 0
r 15.216783022 _10_ RTR  --- 12 cbr 532 [13a a 7 800] ------- [0:0 10:0 30 10] [4] 3 0
r 15.216783022 _10_ AGT  --- 12 cbr 512 [13a a 7 800] ------- [0:0 10:0 30 10] [4] 3 0
s 15.237099049 _0_ AGT  --- 13 cbr 512 [0 0 0 0] ------- [0:0 10:0 32 0] [5] 0 0
r 15.237099049 _0_ RTR  --- 13 cbr 512 [0 0 0 0] ------- [0:0 10:0 32 0] [5] 0 0
SFs 15.237099049 _0_ 13 [0 -> 10] 1(0) to 3 
s 15.237099049 _0_ RTR  --- 13 cbr 532 [0 0 0 0] ------- [0:0 10:0 32 3] [5] 0 0
r 15.242569049 _3_ RTR  --- 13 cbr 532 [13a 3 0 800] ------- [0:0 10:0 32 3] [5] 1 0
SFf 15.242569049 _3_ 13 [0 -> 10] 1 to 7
f 15.242569049 _3_ RTR  --- 13 cbr 532 [13a 3 0 800] ------- [0:0 10:0 31 7] [5] 1 0
r 15.248423285 _7_ RTR  --- 13 cbr 532 [13a 7 3 800] ------- [0:0 10:0 31 7] [5] 2 0
SFf 15.248423285 _7_ 13 [0 -> 10] 1 to 10
f 15.248423285 _7_ RTR  --- 13 cbr 532 [13a 7 3 800] ------- [0:0 10:0 30 10] [5] 2 0
r 15.254176285 _10_ RTR  --- 13 cbr 532 [13a a 7 800] ------- [0:0 10:0 30 10] [5] 3 0
r 15.254176285 _10_ AGT  --- 13 cbr 512 [13a a 7 800] ------- [0:0 10:0 30 10] [5] 3 0
s 15.299375790 _0_ AGT  --- 14 cbr 512 [0 0 0 0] ------- [0:0 10:0 32 0] [6] 0 0
r 15.299375790 _0_ RTR  --- 14 cbr 512 [0 0 0 0] ------- [0:0 10:0 32 0] [6] 0 0
SFs 15.299375790 _0_ 14 [0 -> 10] 1(0) to 3 
s 15.299375790 _0_ RTR  --- 14 cbr 532 [0 0 0 0] ------- [0:0 10:0 32 3] [6] 0 0
r 15.305065790 _3_ RTR  --- 14 cbr 532 [13a 3 0 800] ------- [0:0 10:0 32 3] [6] 1 0
SFf 15.305065790 _3_ 14 [0 -> 10] 1 to 7
f 15.305065790 _3_ RTR  --- 14 cbr 532 [13a 3 0 800] ------- [0:0 10:0 31 7] [6] 1 0
r 15.311220026 _7_ RTR  --- 14 cbr 532 [13a 7 3 800] ------- [0:0 10:0 31 7] [6] 2 0
SFf 15.311220026 _7_ 14 [0 -> 10] 1 to 10
f 15.311220026 _7_ RTR  --- 14 cbr 532 [13a 7 3 800] ------- [0:0 10:0 30 10] [6] 2 0
r 15.317053026 _10_ RTR  --- 14 cbr 532 [13a a 7 800] ------- [0:0 10:0 30 10] [6] 3 0
r 15.317053026 _10_ AGT  --- 14 cbr 512 [13a a 7 800] ------- [0:0 10:0 30 10] [6] 3 0
s 15.326532109 _0_ AGT  --- 15 cbr 512 [0 0 0 0] ------- [0:0 10:0 32 0] [7] 0 0
r 15.326532109 _0_ RTR  --- 15 cbr 512 [0 0 0 0] ------- [0:0 10:0 32 0] [7] 0 0
SFs 15.326532109 _0_ 15 [0 -> 10] 1(0) to 3 
s 15.326532109 _0_ RTR  --- 15 cbr 532 [0 0 0 0] ------- [0:0 10:0 32 3] [7] 0 0
r 15.332222109 _3_ RTR  --- 15 cbr 532 [13a 3 0 800] ------- [0:0 10:0 32 3] [7] 1 0
SFf 15.332222109 _3_ 15 [0 -> 10] 1 to 7
f 15.332222109 _3_ RTR  --- 15 cbr 532 [13a 3 0 800] ------- [0:0 10:0 31 7] [7] 1 0
r 15.338436346 _7_ RTR  --- 15 cbr 532 [13a 7 3 800] ------- [0:0 10:0 31 7] [7] 2 0
SFf 15.338436346 _7_ 15 [0 -> 10] 1 to 10
f 15.338436346 _7_ RTR  --- 15 cbr 532 [13a 7 3 800] ------- [0:0 10:0 30 10] [7] 2 0
r 15.344629346 _10_ RTR  --- 15 cbr 532 [13a a 7 800] ------- [0:0 10:0 30 10] [7] 3 0
r 15.344629346 _10_ AGT  --- 15 cbr 512 [13a a 7 800] ------- [0:0 10:0 30 10] [7] 3 0
s 15.373699236 _0_ AGT  --- 16 cbr 512 [0 0 0 0] ------- [0:0 10:0 32 0] [8] 0 0
r 15.373699236 _0_ RTR  --- 16 cbr 512 [0 0 0 0] ------- [0:0 10:0 32 0] [8] 0 0
SFs 15.373699236 _0_ 16 [0 -> 10] 1(0) to 3 
s 15.373699236 _0_ RTR  --- 16 cbr 532 [0 0 0 0] ------- [0:0 10:0 32 3] [8] 0 0
r 15.379409236 _3_ RTR  --- 16 cbr 532 [13a 3 0 800] ------- [0:0 10:0 32 3] [8] 1 0
SFf 15.379409236 _3_ 16 [0 -> 10] 1 to 7
f 15.379409236 _3_ RTR  --- 16 cbr 532 [13a 3 0 800] ------- [0:0 10:0 31 7] [8] 1 0
r 15.385303473 _7_ RTR  --- 16 cbr 532 [13a 7 3 800] ------- [0:0 10:0 31 7] [8] 2 0
SFf 15.385303473 _7_ 16 [0 -> 10] 1 to 10
f 15.385303473 _7_ RTR  --- 16 cbr 532 [13a 7 3 800] ------- [0:0 10:0 30 10] [8] 2 0
r 15.391136473 _10_ RTR  --- 16 cbr 532 [13a a 7 800] ------- [0:0 10:0 30 10] [8] 3 0
r 15.391136473 _10_ AGT  --- 16 cbr 512 [13a a 7 800] ------- [0:0 10:0 30 10] [8] 3 0
s 15.442710424 _0_ AGT  --- 17 cbr 512 [0 0 0 0] ------- [0:0 10:0 32 0] [9] 0 0
r 15.442710424 _0_ RTR  --- 17 cbr 512 [0 0 0 0] ------- [0:0 10:0 32 0] [9] 0 0
SFs 15.442710424 _0_ 17 [0 -> 10] 1(0) to 3 
s 15.442710424 _0_ RTR  --- 17 cbr 532 [0 0 0 0] ------- [0:0 10:0 32 3] [9] 0 0
r 15.448160424 _3_ RTR  --- 17 cbr 532 [13a 3 0 800] ------- [0:0 10:0 32 3] [9] 1 0
SFf 15.448160424 _3_ 17 [0 -> 10] 1 to 7
f 15.448160424 _3_ RTR  --- 17 cbr 532 [13a 3 0 800] ------- [0:0 10:0 31 7] [9] 1 0
r 15.454334660 _7_ RTR  --- 17 cbr 532 [13a 7 3 800] ------- [0:0 10:0 31 7] [9] 2 0
SFf 15.454334660 _7_ 17 [0 -> 10] 1 to 10
f 15.454334660 _7_ RTR  --- 17 cbr 532 [13a 7 3 800] ------- [0:0 10:0 30 10] [9] 2 0
r 15.460287660 _10_ RTR  --- 17 cbr 532 [13a a 7 800] ------- [0:0 10:0 30 10] [9] 3 0
r 15.460287660 _10_ AGT  --- 17 cbr 512 [13a a 7 800] ------- [0:0 10:0 30 10] [9] 3 0
s 15.485696871 _0_ AGT  --- 18 cbr 512 [0 0 0 0] ------- [0:0 10:0 32 0] [10] 0 0
r 15.485696871 _0_ RTR  --- 18 cbr 512 [0 0 0 0] ------- [0:0 10:0 32 0] [10] 0 0
SFs 15.485696871 _0_ 18 [0 -> 10] 1(0) to 3 
s 15.485696871 _0_ RTR  --- 18 cbr 532 [0 0 0 0] ------- [0:0 10:0 32 3] [10] 0 0
r 15.491446871 _3_ RTR  --- 18 cbr 532 [13a 3 0 800] ------- [0:0 10:0 32 3] [10] 1 0
SFf 15.491446871 _3_ 18 [0 -> 10] 1 to 7
f 15.491446871 _3_ RTR  --- 18 cbr 532 [13a 3 0 800] ------- [0:0 10:0 31 7] [10] 1 0
r 15.497701107 _7_ RTR  --- 18 cbr 532 [13a 7 3 800] ------- [0:0 10:0 31 7] [10] 2 0
SFf 15.497701107 _7_ 18 [0 -> 10] 1 to 10
f 15.497701107 _7_ RTR  --- 18 cbr 532 [13a 7 3 800] ------- [0:0 10:0 30 10] [10] 2 0
r 15.503454107 _10_ RTR  --- 18 cbr 532 [13a a 7 800] ------- [0:0 10:0 30 10] [10] 3 0
r 15.503454107 _10_ AGT  --- 18 cbr 512 [13a a 7 800] ------- [0:0 10:0 30 10] [10] 3 0
s 15.558619718 _0_ AGT  --- 19 cbr 512 [0 0 0 0] ------- [0:0 10:0 32 0] [11] 0 0
r 15.558619718 _0_ RTR  --- 19 cbr 512 [0 0 0 0] ------- [0:0 10:0 32 0] [11] 0 0
SFs 15.558619718 _0_ 19 [0 -> 10] 1(0) to 3 
s 15.558619718 _0_ RTR  --- 19 cbr 532 [0 0 0 0] ------- [0:0 10:0 32 3] [11] 0 0
r 15.564529718 _3_ RTR  --- 19 cbr 532 [13a 3 0 800] ------- [0:0 10:0 32 3] [11] 1 0
SFf 15.564529718 _3_ 19 [0 -> 10] 1 to 7
f 15.564529718 _3_ RTR  --- 19 cbr 532 [13a 3 0 800] ------- [0:0 10:0 31 7] [11] 1 0
r 15.570503954 _7_ RTR  --- 19 cbr 532 [13a 7 3 800] ------- [0:0 10:0 31 7] [11] 2 0
SFf 15.570503954 _7_ 19 [0 -> 10] 1 to 10
f 15.570503954 _7_ RTR  --- 19 cbr 532 [13a 7 3 800] ------- [0:0 10:0 30 10] [11] 2 0
r 15.576356954 _10_ RTR  --- 19 cbr 532 [13a a 7 800] ------- [0:0 10:0 30 10] [11] 3 0
r 15.576356954 _10_ AGT  --- 19 cbr 512 [13a a 7 800] ------- [0:0 10:0 30 10] [11] 3 0
s 15.624652995 _0_ AGT  --- 20 cbr 512 [0 0 0 0] ------- [0:0 10:0 32 0] [12] 0 0
r 15.624652995 _0_ RTR  --- 20 cbr 512 [0 0 0 0] ------- [0:0 10:0 32 0] [12] 0 0
SFs 15.624652995 _0_ 20 [0 -> 10] 1(0) to 3 
s 15.624652995 _0_ RTR  --- 20 cbr 532 [0 0 0 0] ------- [0:0 10:0 32 3] [12] 0 0
r 15.630302995 _3_ RTR  --- 20 cbr 532 [13a 3 0 800] ------- [0:0 10:0 32 3] [12] 1 0
SFf 15.630302995 _3_ 20 [0 -> 10] 1 to 7
f 15.630302995 _3_ RTR  --- 20 cbr 532 [13a 3 0 800] ------- [0:0 10:0 31 7] [12] 1 0
r 15.636217231 _7_ RTR  --- 20 cbr 532 [13a 7 3 800] ------- [0:0 10:0 31 7] [12] 2 0
SFf 15.636217231 _7_ 20 [0 -> 10] 1 to 10
f 15.636217231 _7_ RTR  --- 20 cbr 532 [13a 7 3 800] ------- [0:0 10:0 30 10] [12] 2 0
r 15.642050231 _10_ RTR  --- 20 cbr 532 [13a a 7 800] ------- [0:0 10:0 30 10] [12] 3 0
r 15.642050231 _10_ AGT  --- 20 cbr 512 [13a a 7 800] ------- [0:0 10:0 30 10] [12] 3 0
s 15.660182629 _0_ AGT  --- 21 cbr 512 [0 0 0 0] ------- [0:0 10:0 32 0] [13] 0 0
r 15.660182629 _0_ RTR  --- 21 cbr 512 [0 0 0 0] ------- [0:0 10:0 32 0] [13] 0 0
SFs 15.660182629 _0_ 21 [0 -> 10] 1(0) to 3 
s 15.660182629 _0_ RTR  --- 21 cbr 532 [0 0 0 0] ------- [0:0 10:0 32 3] [13] 0 0
r 15.665732629 _3_ RTR  --- 21 cbr 532 [13a 3 0 800] ------- [0:0 10:0 32 3] [13] 1 0
SFf 15.665732629 _3_ 21 [0 -> 10] 1 to 7
f 15.665732629 _3_ RTR  --- 21 cbr 532 [13a 3 0 800] ------- [0:0 10:0 31 7] [13] 1 0
r 15.671446865 _7_ RTR  --- 21 cbr 532 [13a 7 3 800] ------- [0:0 10:0 31 7] [13] 2 0
SFf 15.671446865 _7_ 21 [0 -> 10] 1 to 10
f 15.671446865 _7_ RTR  --- 21 cbr 532 [13a 7 3 800] ------- [0:0 10:0 30 10] [13] 2 0
r 15.677159865 _10_ RTR  --- 21 cbr 532 [13a a 7 800] ------- [0:0 10:0 30 10] [13] 3 0
r 15.677159865 _10_ AGT  --- 21 cbr 512 [13a a 7 800] ------- [0:0 10:0 30 10] [13] 3 0
s 15.689575072 _0_ AGT  --- 22 cbr 512 [0 0 0 0] ------- [0:0 10:0 32 0] [14] 0 0
r 15.689575072 _0_ RTR  --- 22 cbr 512 [0 0 0 0] ------- [0:0 10:0 32 0] [14] 0 0
SFs 15.689575072 _0_ 22 [0 -> 10] 1(0) to 3 
s 15.689575072 _0_ RTR  --- 22 cbr 532 [0 0 0 0] ------- [0:0 10:0 32 3] [14] 0 0
r 15.695365072 _3_ RTR  --- 22 cbr 532 [13a 3 0 800] ------- [0:0 10:0 32 3] [14] 1 0
SFf 15.695365072 _3_ 22 [0 -> 10] 1 to 7
f 15.695365072 _3_ RTR  --- 22 cbr 532 [13a 3 0 800] ------- [0:0 10:0 31 7] [14] 1 0
r 15.701219308 _7_ RTR  --- 22 cbr 532 [13a 7 3 800] ------- [0:0 10:0 31 7] [14] 2 0
SFf 15.701219308 _7_ 22 [0 -> 10] 1 to 10
f 15.701219308 _7_ RTR  --- 22 cbr 532 [13a 7 3 800] ------- [0:0 10:0 30 10] [14] 2 0
r 15.707492308 _10_ RTR  --- 22 cbr 532 [13a a 7 800] ------- [0:0 10:0 30 10] [14] 3 0
r 15.707492308 _10_ AGT  --- 22 cbr 512 [13a a 7 800] ------- [0:0 10:0 30 10] [14] 3 0
s 15.758147420 _0_ AGT  --- 23 cbr 512 [0 0 0 0] ------- [0:0 10:0 32 0] [15] 0 0
r 15.758147420 _0_ RTR  --- 23 cbr 512 [0 0 0 0] ------- [0:0 10:0 32 0] [15] 0 0
SFs 15.758147420 _0_ 23 [0 -> 10] 1(0) to 3 
s 15.758147420 _0_ RTR  --- 23 cbr 532 [0 0 0 0] ------- [0:0 10:0 32 3] [15] 0 0
r 15.763997420 _3_ RTR  --- 23 cbr 532 [13a 3 0 800] ------- [0:0 10:0 32 3] [15] 1 0
SFf 15.763997420 _3_ 23 [0 -> 10] 1 to 7
f 15.763997420 _3_ RTR  --- 23 cbr 532 [13a 3 0 800] ------- [0:0 10:0 31 7] [15] 1 0
r 15.770131656 _7_ RTR  --- 23 cbr 532 [13a 7 3 800] ------- [0:0 10:0 31 7] [15] 2 0
SFf 15.770131656 _7_ 23 [0 -> 10] 1 to 10
f 15.770131656 _7_ RTR  --- 23 cbr 532 [13a 7 3 800] ------- [0:0 10:0 30 10] [15] 2 0
r 15.775904656 _10_ RTR  --- 23 cbr 532 [13a a 7 800] ------- [0:0 10:0 30 10] [15] 3 0
r 15.775904656 _10_ AGT  --- 23 cbr 512 [13a a 7 800] ------- [0:0 10:0 30 10] [15] 3 0
s 15.832316696 _0_ AGT  --- 24 cbr 512 [0 0 0 0] ------- [0:0 10:0 32 0] [16] 0 0
r 15.832316696 _0_ RTR  --- 24 cbr 512 [0 0 0 0] ------- [0:0 10:0 32 0] [16] 0 0
SFs 15.832316696 _0_ 24 [0 -> 10] 1(0) to 3 
s 15.832316696 _0_ RTR  --- 24 cbr 532 [0 0 0 0] ------- [0:0 10:0 32 3] [16] 0 0
r 15.838146696 _3_ RTR  --- 24 cbr 532 [13a 3 0 800] ------- [0:0 10:0 32 3] [16] 1 0
SFf 15.838146696 _3_ 24 [0 -> 10] 1 to 7
f 15.838146696 _3_ RTR  --- 24 cbr 532 [13a 3 0 800] ------- [0:0 10:0 31 7] [16] 1 0
r 15.844240933 _7_ RTR  --- 24 cbr 532 [13a 7 3 800] ------- [0:0 10:0 31 7] [16] 2 0
SFf 15.844240933 _7_ 24 [0 -> 10] 1 to 10
f 15.844240933 _7_ RTR  --- 24 cbr 532 [13a 7 3 800] ------- [0:0 10:0 30 10] [16] 2 0
r 15.849953933 _10_ RTR  --- 24 cbr 532 [13a a 7 800] ------- [0:0 10:0 30 10] [16] 3 0
r 15.849953933 _10_ AGT  --- 24 cbr 512 [13a a 7 800] ------- [0:0 10:0 30 10] [16] 3 0
s 15.869043036 _0_ AGT  --- 25 cbr 512 [0 0 0 0] ------- [0:0 10:0 32 0] [17] 0 0
r 15.869043036 _0_ RTR  --- 25 cbr 512 [0 0 0 0] ------- [0:0 10:0 32 0] [17] 0 0
SFs 15.869043036 _0_ 25 [0 -> 10] 1(0) to 3 
s 15.869043036 _0_ RTR  --- 25 cbr 532 [0 0 0 0] ------- [0:0 10:0 32 3] [17] 0 0
r 15.874893036 _3_ RTR  --- 25 cbr 532 [13a 3 0 800] ------- [0:0 10:0 32 3] [17] 1 0
SFf 15.874893036 _3_ 25 [0 -> 10] 1 to 7
f 15.874893036 _3_ RTR  --- 25 cbr 532 [13a 3 0 800] ------- [0:0 10:0 31 7] [17] 1 0
r 15.880707272 _7_ RTR  --- 25 cbr 532 [13a 7 3 800] ------- [0:0 10:0 31 7] [17] 2 0
SFf 15.880707272 _7_ 25 [0 -> 10] 1 to 10
f 15.880707272 _7_ RTR  --- 25 cbr 532 [13a 7 3 800] ------- [0:0 10:0 30 10] [17] 2 0
r 15.886540272 _10_ RTR  --- 25 cbr 532 [13a a 7 800] ------- [0:0 10:0 30 10] [17] 3 0
r 15.886540272 _10_ AGT  --- 25 cbr 512 [13a a 7 800] ------- [0:0 10:0 30 10] [17] 3 0
s 15.923696352 _0_ AGT  --- 26 cbr 512 [0 0 0 0] ------- [0:0 10:0 32 0] [18] 0 0
r 15.923696352 _0_ RTR  --- 26 cbr 512 [0 0 0 0] ------- [0:0 10:0 32 0] [18] 0 0
SFs 15.923696352 _0_ 26 [0 -> 10] 1(0) to 3 
s 15.923696352 _0_ RTR  --- 26 cbr 532 [0 0 0 0] ------- [0:0 10:0 32 3] [18] 0 0
r 15.929266352 _3_ RTR  --- 26 cbr 532 [13a 3 0 800] ------- [0:0 10:0 32 3] [18] 1 0
SFf 15.929266352 _3_ 26 [0 -> 10] 1 to 7
f 15.929266352 _3_ RTR  --- 26 cbr 532 [13a 3 0 800] ------- [0:0 10:0 31 7] [18] 1 0
r 15.935580588 _7_ RTR  --- 26 cbr 532 [13a 7 3 800] ------- [0:0 10:0 31 7] [18] 2 0
SFf 15.935580588 _7_ 26 [0 -> 10] 1 to 10
f 15.935580588 _7_ RTR  --- 26 cbr 532 [13a 7 3 800] ------- [0:0 10:0 30 10] [18] 2 0
r 15.941353588 _10_ RTR  --- 26 cbr 532 [13a a 7 800] ------- [0:0 10:0 30 10] [18] 3 0
r 15.941353588 _10_ AGT  --- 26 cbr 512 [13a a 7 800] ------- [0:0 10:0 30 10] [18] 3 0
s 15.958940188 _0_ AGT  --- 27 cbr 512 [0 0 0 0] ------- [0:0 10:0 32 0] [19] 0 0
r 15.958940188 _0_ RTR  --- 27 cbr 512 [0 0 0 0] ------- [0:0 10:0 32 0] [19] 0 0
SFs 15.958940188 _0_ 27 [0 -> 10] 1(0) to 3 
s 15.958940188 _0_ RTR  --- 27 cbr 532 [0 0 0 0] ------- [0:0 10:0 32 3] [19] 0 0
r 15.964510188 _3_ RTR  --- 27 cbr 532 [13a 3 0 800] ------- [0:0 10:0 32 3] [19] 1 0
SFf 15.964510188 _3_ 27 [0 -> 10] 1 to 7
f 15.964510188 _3_ RTR  --- 27 cbr 532 [13a 3 0 800] ------- [0:0 10:0 31 7] [19] 1 0
r 15.970464424 _7_ RTR  --- 27 cbr 532 [13a 7 3 800] ------- [0:0 10:0 31 7] [19] 2 0
SFf 15.970464424 _7_ 27 [0 -> 10] 1 to 10
f 15.970464424 _7_ RTR  --- 27 cbr 532 [13a 7 3 800] ------- [0:0 10:0 30 10] [19] 2 0
r 15.976777424 _10_ RTR  --- 27 cbr 532 [13a a 7 800] ------- [0:0 10:0 30 10] [19] 3 0
r 15.976777424 _10_ AGT  --- 27 cbr 512 [13a a 7 800] ------- [0:0 10:0 30 10] [19] 3 0