n -t * -s 0  -x 100 -y 100 -Z 0 -z 30  -v circle -c black
n -t * -s 1  -x 300 -y 100 -Z 0 -z 30  -v circle -c black
n -t * -s 2  -x 500 -y 100 -Z 0 -z 30  -v circle -c black
n -t * -s 3  -x 100 -y 300 -Z 0 -z 30  -v circle -c black
n -t * -s 4  -x 300 -y 300 -Z 0 -z 30  -v circle -c black
n -t * -s 5  -x 500 -y 300 -Z 0 -z 30  -v circle -c black
n -t * -s 6  -x 100 -y 400 -Z 0 -z 30  -v circle -c black
n -t * -s 7  -x 300 -y 400 -Z 0 -z 30  -v circle -c black
n -t * -s 8  -x 500 -y 400 -Z 0 -z 30  -v circle -c black
n -t * -s 9  -x 100 -y 500 -Z 0 -z 30  -v circle -c black
n -t * -s 10  -x 300 -y 500 -Z 0 -z 30  -v circle -c black
n -t * -s 11  -x 500 -y 500 -Z 0 -z 30  -v circle -c black
n -t * -s 12  -x 500 -y 400 -Z 0 -z 30  -v circle -c black
V -t * -v 1.0a5 -a 0
W -t * -x 500 -y 500
A -t * -n 1 -p 0 -o 0xffffffff -c 31 -a 1
A -t * -h 1 -m 2147483647 -s 0
+ -t 15.000000000 -s 0 -d -1 -p cbr -e 512 -c 2 -a 0 -i 0 -k AGT 
- -t 15.000000000 -s 0 -d -1 -p cbr -e 512 -c 2 -a 0 -i 0 -k AGT
h -t 15.000000000 -s 0 -d -1 -p cbr -e 512 -c 2 -a 0 -i 0 -k AGT
+ -t 15.009164208 -s 0 -d -1 -p DSR -e 32 -c 2 -a 0 -i 1 -k RTR 
- -t 15.009164208 -s 0 -d -1 -p DSR -e 32 -c 2 -a 0 -i 1 -k RTR
h -t 15.009164208 -s 0 -d -1 -p DSR -e 32 -c 2 -a 0 -i 1 -k RTR
+ -t 15.044022529 -s 0 -d -1 -p cbr -e 512 -c 2 -a 0 -i 3 -k AGT 
- -t 15.044022529 -s 0 -d -1 -p cbr -e 512 -c 2 -a 0 -i 3 -k AGT
h -t 15.044022529 -s 0 -d -1 -p cbr -e 512 -c 2 -a 0 -i 3 -k AGT
+ -t 15.052696224 -s 0 -d -1 -p DSR -e 32 -c 2 -a 0 -i 4 -k RTR 
- -t 15.052696224 -s 0 -d -1 -p DSR -e 32 -c 2 -a 0 -i 4 -k RTR
h -t 15.052696224 -s 0 -d -1 -p DSR -e 32 -c 2 -a 0 -i 4 -k RTR
+ -t 15.057020033 -s 1 -d -1 -p DSR -e 48 -c 2 -a 0 -i 4 -k RTR 
- -t 15.057020033 -s 1 -d -1 -p DSR -e 48 -c 2 -a 0 -i 4 -k RTR
h -t 15.057020033 -s 1 -d -1 -p DSR -e 48 -c 2 -a 0 -i 4 -k RTR
+ -t 15.058186528 -s 3 -d -1 -p DSR -e 48 -c 2 -a 0 -i 4 -k RTR 
- -t 15.058186528 -s 3 -d -1 -p DSR -e 48 -c 2 -a 0 -i 4 -k RTR
h -t 15.058186528 -s 3 -d -1 -p DSR -e 48 -c 2 -a 0 -i 4 -k RTR
+ -t 15.059831591 -s 7 -d -1 -p DSR -e 68 -c 2 -a 0 -i 4 -k RTR 
- -t 15.059831591 -s 7 -d -1 -p DSR -e 68 -c 2 -a 0 -i 4 -k RTR
h -t 15.059831591 -s 7 -d -1 -p DSR -e 68 -c 2 -a 0 -i 4 -k RTR
+ -t 15.060586448 -s 2 -d -1 -p DSR -e 68 -c 2 -a 0 -i 4 -k RTR 
- -t 15.060586448 -s 2 -d -1 -p DSR -e 68 -c 2 -a 0 -i 4 -k RTR
h -t 15.060586448 -s 2 -d -1 -p DSR -e 68 -c 2 -a 0 -i 4 -k RTR
+ -t 15.061747218 -s 6 -d -1 -p DSR -e 68 -c 2 -a 0 -i 4 -k RTR 
- -t 15.061747218 -s 6 -d -1 -p DSR -e 68 -c 2 -a 0 -i 4 -k RTR
h -t 15.061747218 -s 6 -d -1 -p DSR -e 68 -c 2 -a 0 -i 4 -k RTR
+ -t 15.061876495 -s 11 -d -1 -p DSR -e 92 -c 2 -a 0 -i 4 -k RTR 
- -t 15.061876495 -s 11 -d -1 -p DSR -e 92 -c 2 -a 0 -i 4 -k RTR
h -t 15.061876495 -s 11 -d -1 -p DSR -e 92 -c 2 -a 0 -i 4 -k RTR
+ -t 15.061957130 -s 9 -d -1 -p DSR -e 68 -c 2 -a 0 -i 4 -k RTR 
- -t 15.061957130 -s 9 -d -1 -p DSR -e 68 -c 2 -a 0 -i 4 -k RTR
h -t 15.061957130 -s 9 -d -1 -p DSR -e 68 -c 2 -a 0 -i 4 -k RTR
+ -t 15.063304855 -s 4 -d -1 -p DSR -e 68 -c 2 -a 0 -i 4 -k RTR 
- -t 15.063304855 -s 4 -d -1 -p DSR -e 68 -c 2 -a 0 -i 4 -k RTR
h -t 15.063304855 -s 4 -d -1 -p DSR -e 68 -c 2 -a 0 -i 4 -k RTR
+ -t 15.063696102 -s 12 -d -1 -p DSR -e 92 -c 2 -a 0 -i 4 -k RTR 
- -t 15.063696102 -s 12 -d -1 -p DSR -e 92 -c 2 -a 0 -i 4 -k RTR
h -t 15.063696102 -s 12 -d -1 -p DSR -e 92 -c 2 -a 0 -i 4 -k RTR
+ -t 15.064428860 -s 10 -d 7 -p DSR -e 60 -c 2 -a 0 -i 5 -k RTR 
- -t 15.064428860 -s 10 -d 7 -p DSR -e 60 -c 2 -a 0 -i 5 -k RTR
h -t 15.064428860 -s 10 -d 7 -p DSR -e 60 -c 2 -a 0 -i 5 -k RTR
+ -t 15.068142514 -s 7 -d 3 -p DSR -e 60 -c 2 -a 0 -i 5 -k RTR 
- -t 15.068142514 -s 7 -d 3 -p DSR -e 60 -c 2 -a 0 -i 5 -k RTR
h -t 15.068142514 -s 7 -d 3 -p DSR -e 60 -c 2 -a 0 -i 5 -k RTR
+ -t 15.069214581 -s 5 -d -1 -p DSR -e 92 -c 2 -a 0 -i 4 -k RTR 
- -t 15.069214581 -s 5 -d -1 -p DSR -e 92 -c 2 -a 0 -i 4 -k RTR
h -t 15.069214581 -s 5 -d -1 -p DSR -e 92 -c 2 -a 0 -i 4 -k RTR
+ -t 15.070160092 -s 8 -d -1 -p DSR -e 92 -c 2 -a 0 -i 4 -k RTR 
- -t 15.070160092 -s 8 -d -1 -p DSR -e 92 -c 2 -a 0 -i 4 -k RTR
h -t 15.070160092 -s 8 -d -1 -p DSR -e 92 -c 2 -a 0 -i 4 -k RTR
+ -t 15.071428057 -s 10 -d 4 -p DSR -e 60 -c 2 -a 0 -i 7 -k RTR 
- -t 15.071428057 -s 10 -d 4 -p DSR -e 60 -c 2 -a 0 -i 7 -k RTR
h -t 15.071428057 -s 10 -d 4 -p DSR -e 60 -c 2 -a 0 -i 7 -k RTR
+ -t 15.071484241 -s 3 -d 0 -p DSR -e 60 -c 2 -a 0 -i 5 -k RTR 
- -t 15.071484241 -s 3 -d 0 -p DSR -e 60 -c 2 -a 0 -i 5 -k RTR
h -t 15.071484241 -s 3 -d 0 -p DSR -e 60 -c 2 -a 0 -i 5 -k RTR
+ -t 15.072746430 -s 10 -d 11 -p DSR -e 68 -c 2 -a 0 -i 8 -k RTR 
- -t 15.072746430 -s 10 -d 11 -p DSR -e 68 -c 2 -a 0 -i 8 -k RTR
h -t 15.072746430 -s 10 -d 11 -p DSR -e 68 -c 2 -a 0 -i 8 -k RTR
+ -t 15.073522241 -s 0 -d 3 -p cbr -e 556 -c 2 -a 0 -i 0 -k RTR 
- -t 15.073522241 -s 0 -d 3 -p cbr -e 556 -c 2 -a 0 -i 0 -k RTR
h -t 15.073522241 -s 0 -d 3 -p cbr -e 556 -c 2 -a 0 -i 0 -k RTR
+ -t 15.074375085 -s 10 -d 12 -p DSR -e 68 -c 2 -a 0 -i 6 -k RTR 
- -t 15.074375085 -s 10 -d 12 -p DSR -e 68 -c 2 -a 0 -i 6 -k RTR
h -t 15.074375085 -s 10 -d 12 -p DSR -e 68 -c 2 -a 0 -i 6 -k RTR
+ -t 15.079628241 -s 3 -d 7 -p cbr -e 556 -c 2 -a 0 -i 0 -k RTR 
- -t 15.079628241 -s 3 -d 7 -p cbr -e 556 -c 2 -a 0 -i 0 -k RTR
h -t 15.079628241 -s 3 -d 7 -p cbr -e 556 -c 2 -a 0 -i 0 -k RTR
+ -t 15.082807319 -s 4 -d 1 -p DSR -e 60 -c 2 -a 0 -i 7 -k RTR 
- -t 15.082807319 -s 4 -d 1 -p DSR -e 60 -c 2 -a 0 -i 7 -k RTR
h -t 15.082807319 -s 4 -d 1 -p DSR -e 60 -c 2 -a 0 -i 7 -k RTR
+ -t 15.084884190 -s 10 -d 6 -p DSR -e 60 -c 2 -a 0 -i 9 -k RTR 
- -t 15.084884190 -s 10 -d 6 -p DSR -e 60 -c 2 -a 0 -i 9 -k RTR
h -t 15.084884190 -s 10 -d 6 -p DSR -e 60 -c 2 -a 0 -i 9 -k RTR
+ -t 15.088803832 -s 7 -d 10 -p cbr -e 556 -c 2 -a 0 -i 0 -k RTR 
- -t 15.088803832 -s 7 -d 10 -p cbr -e 556 -c 2 -a 0 -i 0 -k RTR
h -t 15.088803832 -s 7 -d 10 -p cbr -e 556 -c 2 -a 0 -i 0 -k RTR
+ -t 15.089937452 -s 0 -d -1 -p cbr -e 512 -c 2 -a 0 -i 10 -k AGT 
- -t 15.089937452 -s 0 -d -1 -p cbr -e 512 -c 2 -a 0 -i 10 -k AGT
h -t 15.089937452 -s 0 -d -1 -p cbr -e 512 -c 2 -a 0 -i 10 -k AGT
+ -t 15.089937452 -s 0 -d 3 -p cbr -e 556 -c 2 -a 0 -i 10 -k RTR 
- -t 15.089937452 -s 0 -d 3 -p cbr -e 556 -c 2 -a 0 -i 10 -k RTR
h -t 15.089937452 -s 0 -d 3 -p cbr -e 556 -c 2 -a 0 -i 10 -k RTR
r -t 15.094888832 -s 10 -d 10 -p cbr -e 512 -c 2 -a 0 -i 0 -k AGT
+ -t 15.096987498 -s 1 -d 0 -p DSR -e 60 -c 2 -a 0 -i 7 -k RTR 
- -t 15.096987498 -s 1 -d 0 -p DSR -e 60 -c 2 -a 0 -i 7 -k RTR
h -t 15.096987498 -s 1 -d 0 -p DSR -e 60 -c 2 -a 0 -i 7 -k RTR
+ -t 15.103083774 -s 3 -d 7 -p cbr -e 556 -c 2 -a 0 -i 10 -k RTR 
- -t 15.103083774 -s 3 -d 7 -p cbr -e 556 -c 2 -a 0 -i 10 -k RTR
h -t 15.103083774 -s 3 -d 7 -p cbr -e 556 -c 2 -a 0 -i 10 -k RTR
+ -t 15.103522241 -s 0 -d 3 -p cbr -e 556 -c 2 -a 0 -i 3 -k RTR 
- -t 15.103522241 -s 0 -d 3 -p cbr -e 556 -c 2 -a 0 -i 3 -k RTR
h -t 15.103522241 -s 0 -d 3 -p cbr -e 556 -c 2 -a 0 -i 3 -k RTR
+ -t 15.109344241 -s 3 -d 7 -p cbr -e 556 -c 2 -a 0 -i 3 -k RTR 
- -t 15.109344241 -s 3 -d 7 -p cbr -e 556 -c 2 -a 0 -i 3 -k RTR
h -t 15.109344241 -s 3 -d 7 -p cbr -e 556 -c 2 -a 0 -i 3 -k RTR
+ -t 15.115350477 -s 7 -d 10 -p cbr -e 556 -c 2 -a 0 -i 10 -k RTR 
- -t 15.115350477 -s 7 -d 10 -p cbr -e 556 -c 2 -a 0 -i 10 -k RTR
h -t 15.115350477 -s 7 -d 10 -p cbr -e 556 -c 2 -a 0 -i 10 -k RTR
r -t 15.121335477 -s 10 -d 10 -p cbr -e 512 -c 2 -a 0 -i 10 -k AGT
+ -t 15.123377713 -s 12 -d 7 -p DSR -e 68 -c 2 -a 0 -i 6 -k RTR 
- -t 15.123377713 -s 12 -d 7 -p DSR -e 68 -c 2 -a 0 -i 6 -k RTR
h -t 15.123377713 -s 12 -d 7 -p DSR -e 68 -c 2 -a 0 -i 6 -k RTR
+ -t 15.125416694 -s 6 -d 3 -p DSR -e 60 -c 2 -a 0 -i 9 -k RTR 
- -t 15.125416694 -s 6 -d 3 -p DSR -e 60 -c 2 -a 0 -i 9 -k RTR
h -t 15.125416694 -s 6 -d 3 -p DSR -e 60 -c 2 -a 0 -i 9 -k RTR
+ -t 15.131413128 -s 7 -d 10 -p cbr -e 556 -c 2 -a 0 -i 3 -k RTR 
- -t 15.131413128 -s 7 -d 10 -p cbr -e 556 -c 2 -a 0 -i 3 -k RTR
h -t 15.131413128 -s 7 -d 10 -p cbr -e 556 -c 2 -a 0 -i 3 -k RTR
r -t 15.137338128 -s 10 -d 10 -p cbr -e 512 -c 2 -a 0 -i 3 -k AGT
+ -t 15.141925540 -s 7 -d 3 -p DSR -e 68 -c 2 -a 0 -i 6 -k RTR 
- -t 15.141925540 -s 7 -d 3 -p DSR -e 68 -c 2 -a 0 -i 6 -k RTR
h -t 15.141925540 -s 7 -d 3 -p DSR -e 68 -c 2 -a 0 -i 6 -k RTR
+ -t 15.143967873 -s 11 -d 7 -p DSR -e 68 -c 2 -a 0 -i 8 -k RTR 
- -t 15.143967873 -s 11 -d 7 -p DSR -e 68 -c 2 -a 0 -i 8 -k RTR
h -t 15.143967873 -s 11 -d 7 -p DSR -e 68 -c 2 -a 0 -i 8 -k RTR
+ -t 15.144815555 -s 0 -d -1 -p cbr -e 512 -c 2 -a 0 -i 11 -k AGT 
- -t 15.144815555 -s 0 -d -1 -p cbr -e 512 -c 2 -a 0 -i 11 -k AGT
h -t 15.144815555 -s 0 -d -1 -p cbr -e 512 -c 2 -a 0 -i 11 -k AGT
+ -t 15.144815555 -s 0 -d 3 -p cbr -e 532 -c 2 -a 0 -i 11 -k RTR 
- -t 15.144815555 -s 0 -d 3 -p cbr -e 532 -c 2 -a 0 -i 11 -k RTR
h -t 15.144815555 -s 0 -d 3 -p cbr -e 532 -c 2 -a 0 -i 11 -k RTR
+ -t 15.148502345 -s 3 -d 0 -p DSR -e 68 -c 2 -a 0 -i 6 -k RTR 
- -t 15.148502345 -s 3 -d 0 -p DSR -e 68 -c 2 -a 0 -i 6 -k RTR
h -t 15.148502345 -s 3 -d 0 -p DSR -e 68 -c 2 -a 0 -i 6 -k RTR
+ -t 15.156578345 -s 3 -d 7 -p cbr -e 532 -c 2 -a 0 -i 11 -k RTR 
- -t 15.156578345 -s 3 -d 7 -p cbr -e 532 -c 2 -a 0 -i 11 -k RTR
h -t 15.156578345 -s 3 -d 7 -p cbr -e 532 -c 2 -a 0 -i 11 -k RTR
+ -t 15.158665679 -s 3 -d 0 -p DSR -e 60 -c 2 -a 0 -i 9 -k RTR 
- -t 15.158665679 -s 3 -d 0 -p DSR -e 60 -c 2 -a 0 -i 9 -k RTR
h -t 15.158665679 -s 3 -d 0 -p DSR -e 60 -c 2 -a 0 -i 9 -k RTR
+ -t 15.164659915 -s 7 -d 10 -p cbr -e 532 -c 2 -a 0 -i 11 -k RTR 
- -t 15.164659915 -s 7 -d 10 -p cbr -e 532 -c 2 -a 0 -i 11 -k RTR
h -t 15.164659915 -s 7 -d 10 -p cbr -e 532 -c 2 -a 0 -i 11 -k RTR
r -t 15.170632915 -s 10 -d 10 -p cbr -e 512 -c 2 -a 0 -i 11 -k AGT
+ -t 15.178817584 -s 7 -d 3 -p DSR -e 68 -c 2 -a 0 -i 8 -k RTR 
- -t 15.178817584 -s 7 -d 3 -p DSR -e 68 -c 2 -a 0 -i 8 -k RTR
h -t 15.178817584 -s 7 -d 3 -p DSR -e 68 -c 2 -a 0 -i 8 -k RTR
+ -t 15.181179820 -s 3 -d 0 -p DSR -e 68 -c 2 -a 0 -i 8 -k RTR 
- -t 15.181179820 -s 3 -d 0 -p DSR -e 68 -c 2 -a 0 -i 8 -k RTR
h -t 15.181179820 -s 3 -d 0 -p DSR -e 68 -c 2 -a 0 -i 8 -k RTR
+ -t 15.198785786 -s 0 -d -1 -p cbr -e 512 -c 2 -a 0 -i 12 -k AGT 
- -t 15.198785786 -s 0 -d -1 -p cbr -e 512 -c 2 -a 0 -i 12 -k AGT
h -t 15.198785786 -s 0 -d -1 -p cbr -e 512 -c 2 -a 0 -i 12 -k AGT
+ -t 15.198785786 -s 0 -d 3 -p cbr -e 532 -c 2 -a 0 -i 12 -k RTR 
- -t 15.198785786 -s 0 -d 3 -p cbr -e 532 -c 2 -a 0 -i 12 -k RTR
h -t 15.198785786 -s 0 -d 3 -p cbr -e 532 -c 2 -a 0 -i 12 -k RTR
+ -t 15.204755786 -s 3 -d 7 -p cbr -e 532 -c 2 -a 0 -i 12 -k RTR 
- -t 15.204755786 -s 3 -d 7 -p cbr -e 532 -c 2 -a 0 -i 12 -k RTR
h -t 15.204755786 -s 3 -d 7 -p cbr -e 532 -c 2 -a 0 -i 12 -k RTR
+ -t 15.210610022 -s 7 -d 10 -p cbr -e 532 -c 2 -a 0 -i 12 -k RTR 
- -t 15.210610022 -s 7 -d 10 -p cbr -e 532 -c 2 -a 0 -i 12 -k RTR
h -t 15.210610022 -s 7 -d 10 -p cbr -e 532 -c 2 -a 0 -i 12 -k RTR
r -t 15.216783022 -s 10 -d 10 -p cbr -e 512 -c 2 -a 0 -i 12 -k AGT
+ -t 15.237099049 -s 0 -d -1 -p cbr -e 512 -c 2 -a 0 -i 13 -k AGT 
- -t 15.237099049 -s 0 -d -1 -p cbr -e 512 -c 2 -a 0 -i 13 -k AGT
h -t 15.237099049 -s 0 -d -1 -p cbr -e 512 -c 2 -a 0 -i 13 -k AGT
+ -t 15.237099049 -s 0 -d 3 -p cbr -e 532 -c 2 -a 0 -i 13 -k RTR 
- -t 15.237099049 -s 0 -d 3 -p cbr -e 532 -c 2 -a 0 -i 13 -k RTR
h -t 15.237099049 -s 0 -d 3 -p cbr -e 532 -c 2 -a 0 -i 13 -k RTR
+ -t 15.242569049 -s 3 -d 7 -p cbr -e 532 -c 2 -a 0 -i 13 -k RTR 
- -t 15.242569049 -s 3 -d 7 -p cbr -e 532 -c 2 -a 0 -i 13 -k RTR
h -t 15.242569049 -s 3 -d 7 -p cbr -e 532 -c 2 -a 0 -i 13 -k RTR
+ -t 15.248423285 -s 7 -d 10 -p cbr -e 532 -c 2 -a 0 -i 13 -k RTR 
- -t 15.248423285 -s 7 -d 10 -p cbr -e 532 -c 2 -a 0 -i 13 -k RTR
h -t 15.248423285 -s 7 -d 10 -p cbr -e 532 -c 2 -a 0 -i 13 -k RTR
r -t 15.254176285 -s 10 -d 10 -p cbr -e 512 -c 2 -a 0 -i 13 -k AGT
+ -t 15.299375790 -s 0 -d -1 -p cbr -e 512 -c 2 -a 0 -i 14 -k AGT 
- -t 15.299375790 -s 0 -d -1 -p cbr -e 512 -c 2 -a 0 -i 14 -k AGT
h -t 15.299375790 -s 0 -d -1 -p cbr -e 512 -c 2 -a 0 -i 14 -k AGT
+ -t 15.299375790 -s 0 -d 3 -p cbr -e 532 -c 2 -a 0 -i 14 -k RTR 
- -t 15.299375790 -s 0 -d 3 -p cbr -e 532 -c 2 -a 0 -i 14 -k RTR
h -t 15.299375790 -s 0 -d 3 -p cbr -e 532 -c 2 -a 0 -i 14 -k RTR
+ -t 15.305065790 -s 3 -d 7 -p cbr -e 532 -c 2 -a 0 -i 14 -k RTR 
- -t 15.305065790 -s 3 -d 7 -p cbr -e 532 -c 2 -a 0 -i 14 -k RTR
h -t 15.305065790 -s 3 -d 7 -p cbr -e 532 -c 2 -a 0 -i 14 -k RTR
+ -t 15.311220026 -s 7 -d 10 -p cbr -e 532 -c 2 -a 0 -i 14 -k RTR 
- -t 15.311220026 -s 7 -d 10 -p cbr -e 532 -c 2 -a 0 -i 14 -k RTR
h -t 15.311220026 -s 7 -d 10 -p cbr -e 532 -c 2 -a 0 -i 14 -k RTR
r -t 15.317053026 -s 10 -d 10 -p cbr -e 512 -c 2 -a 0 -i 14 -k AGT
+ -t 15.326532109 -s 0 -d -1 -p cbr -e 512 -c 2 -a 0 -i 15 -k AGT 
- -t 15.326532109 -s 0 -d -1 -p cbr -e 512 -c 2 -a 0 -i 15 -k AGT
h -t 15.326532109 -s 0 -d -1 -p cbr -e 512 -c 2 -a 0 -i 15 -k AGT
+ -t 15.326532109 -s 0 -d 3 -p cbr -e 532 -c 2 -a 0 -i 15 -k RTR 
- -t 15.326532109 -s 0 -d 3 -p cbr -e 532 -c 2 -a 0 -i 15 -k RTR
h -t 15.326532109 -s 0 -d 3 -p cbr -e 532 -c 2 -a 0 -i 15 -k RTR
+ -t 15.332222109 -s 3 -d 7 -p cbr -e 532 -c 2 -a 0 -i 15 -k RTR 
- -t 15.332222109 -s 3 -d 7 -p cbr -e 532 -c 2 -a 0 -i 15 -k RTR
h -t 15.332222109 -s 3 -d 7 -p cbr -e 532 -c 2 -a 0 -i 15 -k RTR
+ -t 15.338436346 -s 7 -d 10 -p cbr -e 532 -c 2 -a 0 -i 15 -k RTR 
- -t 15.338436346 -s 7 -d 10 -p cbr -e 532 -c 2 -a 0 -i 15 -k RTR
h -t 15.338436346 -s 7 -d 10 -p cbr -e 532 -c 2 -a 0 -i 15 -k RTR
r -t 15.344629346 -s 10 -d 10 -p cbr -e 512 -c 2 -a 0 -i 15 -k AGT
+ -t 15.373699236 -s 0 -d -1 -p cbr -e 512 -c 2 -a 0 -i 16 -k AGT 
- -t 15.373699236 -s 0 -d -1 -p cbr -e 512 -c 2 -a 0 -i 16 -k AGT
h -t 15.373699236 -s 0 -d -1 -p cbr -e 512 -c 2 -a 0 -i 16 -k AGT
+ -t 15.373699236 -s 0 -d 3 -p cbr -e 532 -c 2 -a 0 -i 16 -k RTR 
- -t 15.373699236 -s 0 -d 3 -p cbr -e 532 -c 2 -a 0 -i 16 -k RTR
h -t 15.373699236 -s 0 -d 3 -p cbr -e 532 -c 2 -a 0 -i 16 -k RTR
+ -t 15.379409236 -s 3 -d 7 -p cbr -e 532 -c 2 -a 0 -i 16 -k RTR 
- -t 15.379409236 -s 3 -d 7 -p cbr -e 532 -c 2 -a 0 -i 16 -k RTR
h -t 15.379409236 -s 3 -d 7 -p cbr -e 532 -c 2 -a 0 -i 16 -k RTR
+ -t 15.385303473 -s 7 -d 10 -p cbr -e 532 -c 2 -a 0 -i 16 -k RTR 
- -t 15.385303473 -s 7 -d 10 -p cbr -e 532 -c 2 -a 0 -i 16 -k RTR
h -t 15.385303473 -s 7 -d 10 -p cbr -e 532 -c 2 -a 0 -i 16 -k RTR
r -t 15.391136473 -s 10 -d 10 -p cbr -e 512 -c 2 -a 0 -i 16 -k AGT
+ -t 15.442710424 -s 0 -d -1 -p cbr -e 512 -c 2 -a 0 -i 17 -k AGT 
- -t 15.442710424 -s 0 -d -1 -p cbr -e 512 -c 2 -a 0 -i 17 -k AGT
h -t 15.442710424 -s 0 -d -1 -p cbr -e 512 -c 2 -a 0 -i 17 -k AGT
+ -t 15.442710424 -s 0 -d 3 -p cbr -e 532 -c 2 -a 0 -i 17 -k RTR 
- -t 15.442710424 -s 0 -d 3 -p cbr -e 532 -c 2 -a 0 -i 17 -k RTR
h -t 15.442710424 -s 0 -d 3 -p cbr -e 532 -c 2 -a 0 -i 17 -k RTR
+ -t 15.448160424 -s 3 -d 7 -p cbr -e 532 -c 2 -a 0 -i 17 -k RTR 
- -t 15.448160424 -s 3 -d 7 -p cbr -e 532 -c 2 -a 0 -i 17 -k RTR
h -t 15.448160424 -s 3 -d 7 -p cbr -e 532 -c 2 -a 0 -i 17 -k RTR
+ -t 15.454334660 -s 7 -d 10 -p cbr -e 532 -c 2 -a 0 -i 17 -k RTR 
- -t 15.454334660 -s 7 -d 10 -p cbr -e 532 -c 2 -a 0 -i 17 -k RTR
h -t 15.454334660 -s 7 -d 10 -p cbr -e 532 -c 2 -a 0 -i 17 -k RTR
r -t 15.460287660 -s 10 -d 10 -p cbr -e 512 -c 2 -a 0 -i 17 -k AGT
+ -t 15.485696871 -s 0 -d -1 -p cbr -e 512 -c 2 -a 0 -i 18 -k AGT 
- -t 15.485696871 -s 0 -d -1 -p cbr -e 512 -c 2 -a 0 -i 18 -k AGT
h -t 15.485696871 -s 0 -d -1 -p cbr -e 512 -c 2 -a 0 -i 18 -k AGT
+ -t 15.485696871 -s 0 -d 3 -p cbr -e 532 -c 2 -a 0 -i 18 -k RTR 
- -t 15.485696871 -s 0 -d 3 -p cbr -e 532 -c 2 -a 0 -i 18 -k RTR
h -t 15.485696871 -s 0 -d 3 -p cbr -e 532 -c 2 -a 0 -i 18 -k RTR
+ -t 15.491446871 -s 3 -d 7 -p cbr -e 532 -c 2 -a 0 -i 18 -k RTR 
- -t 15.491446871 -s 3 -d 7 -p cbr -e 532 -c 2 -a 0 -i 18 -k RTR
h -t 15.491446871 -s 3 -d 7 -p cbr -e 532 -c 2 -a 0 -i 18 -k RTR
+ -t 15.497701107 -s 7 -d 10 -p cbr -e 532 -c 2 -a 0 -i 18 -k RTR 
- -t 15.497701107 -s 7 -d 10 -p cbr -e 532 -c 2 -a 0 -i 18 -k RTR
h -t 15.497701107 -s 7 -d 10 -p cbr -e 532 -c 2 -a 0 -i 18 -k RTR
r -t 15.503454107 -s 10 -d 10 -p cbr -e 512 -c 2 -a 0 -i 18 -k AGT
+ -t 15.558619718 -s 0 -d -1 -p cbr -e 512 -c 2 -a 0 -i 19 -k AGT 
- -t 15.558619718 -s 0 -d -1 -p cbr -e 512 -c 2 -a 0 -i 19 -k AGT
h -t 15.558619718 -s 0 -d -1 -p cbr -e 512 -c 2 -a 0 -i 19 -k AGT
+ -t 15.558619718 -s 0 -d 3 -p cbr -e 532 -c 2 -a 0 -i 19 -k RTR 
- -t 15.558619718 -s 0 -d 3 -p cbr -e 532 -c 2 -a 0 -i 19 -k RTR
h -t 15.558619718 -s 0 -d 3 -p cbr -e 532 -c 2 -a 0 -i 19 -k RTR
+ -t 15.564529718 -s 3 -d 7 -p cbr -e 532 -c 2 -a 0 -i 19 -k RTR 
- -t 15.564529718 -s 3 -d 7 -p cbr -e 532 -c 2 -a 0 -i 19 -k RTR
h -t 15.564529718 -s 3 -d 7 -p cbr -e 532 -c 2 -a 0 -i 19 -k RTR
+ -t 15.570503954 -s 7 -d 10 -p cbr -e 532 -c 2 -a 0 -i 19 -k RTR 
- -t 15.570503954 -s 7 -d 10 -p cbr -e 532 -c 2 -a 0 -i 19 -k RTR
h -t 15.570503954 -s 7 -d 10 -p cbr -e 532 -c 2 -a 0 -i 19 -k RTR
r -t 15.576356954 -s 10 -d 10 -p cbr -e 512 -c 2 -a 0 -i 19 -k AGT
+ -t 15.624652995 -s 0 -d -1 -p cbr -e 512 -c 2 -a 0 -i 20 -k AGT 
- -t 15.624652995 -s 0 -d -1 -p cbr -e 512 -c 2 -a 0 -i 20 -k AGT
h -t 15.624652995 -s 0 -d -1 -p cbr -e 512 -c 2 -a 0 -i 20 -k AGT
+ -t 15.624652995 -s 0 -d 3 -p cbr -e 532 -c 2 -a 0 -i 20 -k RTR 
- -t 15.624652995 -s 0 -d 3 -p cbr -e 532 -c 2 -a 0 -i 20 -k RTR
h -t 15.624652995 -s 0 -d 3 -p cbr -e 532 -c 2 -a 0 -i 20 -k RTR
+ -t 15.630302995 -s 3 -d 7 -p cbr -e 532 -c 2 -a 0 -i 20 -k RTR 
- -t 15.630302995 -s 3 -d 7 -p cbr -e 532 -c 2 -a 0 -i 20 -k RTR
h -t 15.630302995 -s 3 -d 7 -p cbr -e 532 -c 2 -a 0 -i 20 -k RTR
+ -t 15.636217231 -s 7 -d 10 -p cbr -e 532 -c 2 -a 0 -i 20 -k RTR 
- -t 15.636217231 -s 7 -d 10 -p cbr -e 532 -c 2 -a 0 -i 20 -k RTR
h -t 15.636217231 -s 7 -d 10 -p cbr -e 532 -c 2 -a 0 -i 20 -k RTR
r -t 15.642050231 -s 10 -d 10 -p cbr -e 512 -c 2 -a 0 -i 20 -k AGT
+ -t 15.660182629 -s 0 -d -1 -p cbr -e 512 -c 2 -a 0 -i 21 -k AGT 
- -t 15.660182629 -s 0 -d -1 -p cbr -e 512 -c 2 -a 0 -i 21 -k AGT
h -t 15.660182629 -s 0 -d -1 -p cbr -e 512 -c 2 -a 0 -i 21 -k AGT
+ -t 15.660182629 -s 0 -d 3 -p cbr -e 532 -c 2 -a 0 -i 21 -k RTR 
- -t 15.660182629 -s 0 -d 3 -p cbr -e 532 -c 2 -a 0 -i 21 -k RTR
h -t 15.660182629 -s 0 -d 3 -p cbr -e 532 -c 2 -a 0 -i 21 -k RTR
+ -t 15.665732629 -s 3 -d 7 -p cbr -e 532 -c 2 -a 0 -i 21 -k RTR 
- -t 15.665732629 -s 3 -d 7 -p cbr -e 532 -c 2 -a 0 -i 21 -k RTR
h -t 15.665732629 -s 3 -d 7 -p cbr -e 532 -c 2 -a 0 -i 21 -k RTR
+ -t 15.671446865 -s 7 -d 10 -p cbr -e 532 -c 2 -a 0 -i 21 -k RTR 
- -t 15.671446865 -s 7 -d 10 -p cbr -e 532 -c 2 -a 0 -i 21 -k RTR
h -t 15.671446865 -s 7 -d 10 -p cbr -e 532 -c 2 -a 0 -i 21 -k RTR
r -t 15.677159865 -s 10 -d 10 -p cbr -e 512 -c 2 -a 0 -i 21 -k AGT
+ -t 15.689575072 -s 0 -d -1 -p cbr -e 512 -c 2 -a 0 -i 22 -k AGT 
- -t 15.689575072 -s 0 -d -1 -p cbr -e 512 -c 2 -a 0 -i 22 -k AGT
h -t 15.689575072 -s 0 -d -1 -p cbr -e 512 -c 2 -a 0 -i 22 -k AGT
+ -t 15.689575072 -s 0 -d 3 -p cbr -e 532 -c 2 -a 0 -i 22 -k RTR 
- -t 15.689575072 -s 0 -d 3 -p cbr -e 532 -c 2 -a 0 -i 22 -k RTR
h -t 15.689575072 -s 0 -d 3 -p cbr -e 532 -c 2 -a 0 -i 22 -k RTR
+ -t 15.695365072 -s 3 -d 7 -p cbr -e 532 -c 2 -a 0 -i 22 -k RTR 
- -t 15.695365072 -s 3 -d 7 -p cbr -e 532 -c 2 -a 0 -i 22 -k RTR
h -t 15.695365072 -s 3 -d 7 -p cbr -e 532 -c 2 -a 0 -i 22 -k RTR
+ -t 15.701219308 -s 7 -d 10 -p cbr -e 532 -c 2 -a 0 -i 22 -k RTR 
- -t 15.701219308 -s 7 -d 10 -p cbr -e 532 -c 2 -a 0 -i 22 -k RTR
h -t 15.701219308 -s 7 -d 10 -p cbr -e 532 -c 2 -a 0 -i 22 -k RTR
r -t 15.707492308 -s 10 -d 10 -p cbr -e 512 -c 2 -a 0 -i 22 -k AGT
+ -t 15.758147420 -s 0 -d -1 -p cbr -e 512 -c 2 -a 0 -i 23 -k AGT 
- -t 15.758147420 -s 0 -d -1 -p cbr -e 512 -c 2 -a 0 -i 23 -k AGT
h -t 15.758147420 -s 0 -d -1 -p cbr -e 512 -c 2 -a 0 -i 23 -k AGT
+ -t 15.758147420 -s 0 -d 3 -p cbr -e 532 -c 2 -a 0 -i 23 -k RTR 
- -t 15.758147420 -s 0 -d 3 -p cbr -e 532 -c 2 -a 0 -i 23 -k RTR
h -t 15.758147420 -s 0 -d 3 -p cbr -e 532 -c 2 -a 0 -i 23 -k RTR
+ -t 15.763997420 -s 3 -d 7 -p cbr -e 532 -c 2 -a 0 -i 23 -k RTR 
- -t 15.763997420 -s 3 -d 7 -p cbr -e 532 -c 2 -a 0 -i 23 -k RTR
h -t 15.763997420 -s 3 -d 7 -p cbr -e 532 -c 2 -a 0 -i 23 -k RTR
+ -t 15.770131656 -s 7 -d 10 -p cbr -e 532 -c 2 -a 0 -i 23 -k RTR 
- -t 15.770131656 -s 7 -d 10 -p cbr -e 532 -c 2 -a 0 -i 23 -k RTR
h -t 15.770131656 -s 7 -d 10 -p cbr -e 532 -c 2 -a 0 -i 23 -k RTR
r -t 15.775904656 -s 10 -d 10 -p cbr -e 512 -c 2 -a 0 -i 23 -k AGT
+ -t 15.832316696 -s 0 -d -1 -p cbr -e 512 -c 2 -a 0 -i 24 -k AGT 
- -t 15.832316696 -s 0 -d -1 -p cbr -e 512 -c 2 -a 0 -i 24 -k AGT
h -t 15.832316696 -s 0 -d -1 -p cbr -e 512 -c 2 -a 0 -i 24 -k AGT
+ -t 15.832316696 -s 0 -d 3 -p cbr -e 532 -c 2 -a 0 -i 24 -k RTR 
- -t 15.832316696 -s 0 -d 3 -p cbr -e 532 -c 2 -a 0 -i 24 -k RTR
h -t 15.832316696 -s 0 -d 3 -p cbr -e 532 -c 2 -a 0 -i 24 -k RTR
+ -t 15.838146696 -s 3 -d 7 -p cbr -e 532 -c 2 -a 0 -i 24 -k RTR 
- -t 15.838146696 -s 3 -d 7 -p cbr -e 532 -c 2 -a 0 -i 24 -k RTR
h -t 15.838146696 -s 3 -d 7 -p cbr -e 532 -c 2 -a 0 -i 24 -k RTR
+ -t 15.844240933 -s 7 -d 10 -p cbr -e 532 -c 2 -a 0 -i 24 -k RTR 
- -t 15.844240933 -s 7 -d 10 -p cbr -e 532 -c 2 -a 0 -i 24 -k RTR
h -t 15.844240933 -s 7 -d 10 -p cbr -e 532 -c 2 -a 0 -i 24 -k RTR
r -t 15.849953933 -s 10 -d 10 -p cbr -e 512 -c 2 -a 0 -i 24 -k AGT
+ -t 15.869043036 -s 0 -d -1 -p cbr -e 512 -c 2 -a 0 -i 25 -k AGT 
- -t 15.869043036 -s 0 -d -1 -p cbr -e 512 -c 2 -a 0 -i 25 -k AGT
h -t 15.869043036 -s 0 -d -1 -p cbr -e 512 -c 2 -a 0 -i 25 -k AGT
+ -t 15.869043036 -s 0 -d 3 -p cbr -e 532 -c 2 -a 0 -i 25 -k RTR 
- -t 15.869043036 -s 0 -d 3 -p cbr -e 532 -c 2 -a 0 -i 25 -k RTR
h -t 15.869043036 -s 0 -d 3 -p cbr -e 532 -c 2 -a 0 -i 25 -k RTR
+ -t 15.874893036 -s 3 -d 7 -p cbr -e 532 -c 2 -a 0 -i 25 -k RTR 
- -t 15.874893036 -s 3 -d 7 -p cbr -e 532 -c 2 -a 0 -i 25 -k RTR
h -t 15.874893036 -s 3 -d 7 -p cbr -e 532 -c 2 -a 0 -i 25 -k RTR
+ -t 15.880707272 -s 7 -d 10 -p cbr -e 532 -c 2 -a 0 -i 25 -k RTR 
- -t 15.880707272 -s 7 -d 10 -p cbr -e 532 -c 2 -a 0 -i 25 -k RTR
h -t 15.880707272 -s 7 -d 10 -p cbr -e 532 -c 2 -a 0 -i 25 -k RTR
r -t 15.886540272 -s 10 -d 10 -p cbr -e 512 -c 2 -a 0 -i 25 -k AGT
+ -t 15.923696352 -s 0 -d -1 -p cbr -e 512 -c 2 -a 0 -i 26 -k AGT 
- -t 15.923696352 -s 0 -d -1 -p cbr -e 512 -c 2 -a 0 -i 26 -k AGT
h -t 15.923696352 -s 0 -d -1 -p cbr -e 512 -c 2 -a 0 -i 26 -k AGT
+ -t 15.923696352 -s 0 -d 3 -p cbr -e 532 -c 2 -a 0 -i 26 -k RTR 
- -t 15.923696352 -s 0 -d 3 -p cbr -e 532 -c 2 -a 0 -i 26 -k RTR
h -t 15.923696352 -s 0 -d 3 -p cbr -e 532 -c 2 -a 0 -i 26 -k RTR
+ -t 15.929266352 -s 3 -d 7 -p cbr -e 532 -c 2 -a 0 -i 26 -k RTR 
- -t 15.929266352 -s 3 -d 7 -p cbr -e 532 -c 2 -a 0 -i 26 -k RTR
h -t 15.929266352 -s 3 -d 7 -p cbr -e 532 -c 2 -a 0 -i 26 -k RTR
+ -t 15.935580588 -s 7 -d 10 -p cbr -e 532 -c 2 -a 0 -i 26 -k RTR 
- -t 15.935580588 -s 7 -d 10 -p cbr -e 532 -c 2 -a 0 -i 26 -k RTR
h -t 15.935580588 -s 7 -d 10 -p cbr -e 532 -c 2 -a 0 -i 26 -k RTR
r -t 15.941353588 -s 10 -d 10 -p cbr -e 512 -c 2 -a 0 -i 26 -k AGT
+ -t 15.958940188 -s 0 -d -1 -p cbr -e 512 -c 2 -a 0 -i 27 -k AGT 
- -t 15.958940188 -s 0 -d -1 -p cbr -e 512 -c 2 -a 0 -i 27 -k AGT
h -t 15.958940188 -s 0 -d -1 -p cbr -e 512 -c 2 -a 0 -i 27 -k AGT
+ -t 15.958940188 -s 0 -d 3 -p cbr -e 532 -c 2 -a 0 -i 27 -k RTR 
- -t 15.958940188 -s 0 -d 3 -p cbr -e 532 -c 2 -a 0 -i 27 -k RTR
h -t 15.958940188 -s 0 -d 3 -p cbr -e 532 -c 2 -a 0 -i 27 -k RTR
+ -t 15.964510188 -s 3 -d 7 -p cbr -e 532 -c 2 -a 0 -i 27 -k RTR 
- -t 15.964510188 -s 3 -d 7 -p cbr -e 532 -c 2 -a 0 -i 27 -k RTR
h -t 15.964510188 -s 3 -d 7 -p cbr -e 532 -c 2 -a 0 -i 27 -k RTR
+ -t 15.970464424 -s 7 -d 10 -p cbr -e 532 -c 2 -a 0 -i 27 -k RTR 
- -t 15.970464424 -s 7 -d 10 -p cbr -e 532 -c 2 -a 0 -i 27 -k RTR
h -t 15.970464424 -s 7 -d 10 -p cbr -e 532 -c 2 -a 0 -i 27 -k RTR
r -t 15.976777424 -s 10 -d 10 -p cbr -e 512 -c 2 -a 0 -i 27 -k AGT
+ -t 16.029780784 -s 0 -d -1 -p cbr -e 512 -c 2 -a 0 -i 28 -k AGT 
- -t 16.029780784 -s 0 -d -1 -p cbr -e 512 -c 2 -a 0 -i 28 -k AGT
h -t 16.029780784 -s 0 -d -1 -p cbr -e 512 -c 2 -a 0 -i 28 -k AGT
+ -t 16.029780784 -s 0 -d 3 -p cbr -e 532 -c 2 -a 0 -i 28 -k RTR 
- -t 16.029780784 -s 0 -d 3 -p cbr -e 532 -c 2 -a 0 -i 28 -k RTR
h -t 16.029780784 -s 0 -d 3 -p cbr -e 532 -c 2 -a 0 -i 28 -k RTR
+ -t 16.035770784 -s 3 -d 7 -p cbr -e 532 -c 2 -a 0 -i 28 -k RTR 
- -t 16.035770784 -s 3 -d 7 -p cbr -e 532 -c 2 -a 0 -i 28 -k RTR
h -t 16.035770784 -s 3 -d 7 -p cbr -e 532 -c 2 -a 0 -i 28 -k RTR
+ -t 16.041525020 -s 7 -d 10 -p cbr -e 532 -c 2 -a 0 -i 28 -k RTR 
- -t 16.041525020 -s 7 -d 10 -p cbr -e 532 -c 2 -a 0 -i 28 -k RTR
h -t 16.041525020 -s 7 -d 10 -p cbr -e 532 -c 2 -a 0 -i 28 -k RTR
r -t 16.047838020 -s 10 -d 10 -p cbr -e 512 -c 2 -a 0 -i 28 -k AGT
+ -t 16.056803196 -s 0 -d -1 -p cbr -e 512 -c 2 -a 0 -i 29 -k AGT 
- -t 16.056803196 -s 0 -d -1 -p cbr -e 512 -c 2 -a 0 -i 29 -k AGT
h -t 16.056803196 -s 0 -d -1 -p cbr -e 512 -c 2 -a 0 -i 29 -k AGT
+ -t 16.056803196 -s 0 -d 3 -p cbr -e 532 -c 2 -a 0 -i 29 -k RTR 
- -t 16.056803196 -s 0 -d 3 -p cbr -e 532 -c 2 -a 0 -i 29 -k RTR
h -t 16.056803196 -s 0 -d 3 -p cbr -e 532 -c 2 -a 0 -i 29 -k RTR
+ -t 16.062653196 -s 3 -d 7 -p cbr -e 532 -c 2 -a 0 -i 29 -k RTR 
- -t 16.062653196 -s 3 -d 7 -p cbr -e 532 -c 2 -a 0 -i 29 -k RTR
h -t 16.062653196 -s 3 -d 7 -p cbr -e 532 -c 2 -a 0 -i 29 -k RTR
+ -t 16.068827432 -s 7 -d 10 -p cbr -e 532 -c 2 -a 0 -i 29 -k RTR 
- -t 16.068827432 -s 7 -d 10 -p cbr -e 532 -c 2 -a 0 -i 29 -k RTR
h -t 16.068827432 -s 7 -d 10 -p cbr -e 532 -c 2 -a 0 -i 29 -k RTR
r -t 16.074960432 -s 10 -d 10 -p cbr -e 512 -c 2 -a 0 -i 29 -k AGT
+ -t 16.128410482 -s 0 -d -1 -p cbr -e 512 -c 2 -a 0 -i 30 -k AGT 
- -t 16.128410482 -s 0 -d -1 -p cbr -e 512 -c 2 -a 0 -i 30 -k AGT
h -t 16.128410482 -s 0 -d -1 -p cbr -e 512 -c 2 -a 0 -i 30 -k AGT
+ -t 16.128410482 -s 0 -d 3 -p cbr -e 532 -c 2 -a 0 -i 30 -k RTR 
- -t 16.128410482 -s 0 -d 3 -p cbr -e 532 -c 2 -a 0 -i 30 -k RTR
h -t 16.128410482 -s 0 -d 3 -p cbr -e 532 -c 2 -a 0 -i 30 -k RTR
+ -t 16.134220482 -s 3 -d 7 -p cbr -e 532 -c 2 -a 0 -i 30 -k RTR 
- -t 16.134220482 -s 3 -d 7 -p cbr -e 532 -c 2 -a 0 -i 30 -k RTR
h -t 16.134220482 -s 3 -d 7 -p cbr -e 532 -c 2 -a 0 -i 30 -k RTR
+ -t 16.140454718 -s 7 -d 10 -p cbr -e 532 -c 2 -a 0 -i 30 -k RTR 
- -t 16.140454718 -s 7 -d 10 -p cbr -e 532 -c 2 -a 0 -i 30 -k RTR
h -t 16.140454718 -s 7 -d 10 -p cbr -e 532 -c 2 -a 0 -i 30 -k RTR
r -t 16.146187718 -s 10 -d 10 -p cbr -e 512 -c 2 -a 0 -i 30 -k AGT
+ -t 16.190448228 -s 0 -d -1 -p cbr -e 512 -c 2 -a 0 -i 31 -k AGT 
- -t 16.190448228 -s 0 -d -1 -p cbr -e 512 -c 2 -a 0 -i 31 -k AGT
h -t 16.190448228 -s 0 -d -1 -p cbr -e 512 -c 2 -a 0 -i 31 -k AGT
+ -t 16.190448228 -s 0 -d 3 -p cbr -e 532 -c 2 -a 0 -i 31 -k RTR 
- -t 16.190448228 -s 0 -d 3 -p cbr -e 532 -c 2 -a 0 -i 31 -k RTR
h -t 16.190448228 -s 0 -d 3 -p cbr -e 532 -c 2 -a 0 -i 31 -k RTR
+ -t 16.195918228 -s 3 -d 7 -p cbr -e 532 -c 2 -a 0 -i 31 -k RTR 
- -t 16.195918228 -s 3 -d 7 -p cbr -e 532 -c 2 -a 0 -i 31 -k RTR
h -t 16.195918228 -s 3 -d 7 -p cbr -e 532 -c 2 -a 0 -i 31 -k RTR
+ -t 16.202032464 -s 7 -d 10 -p cbr -e 532 -c 2 -a 0 -i 31 -k RTR 
- -t 16.202032464 -s 7 -d 10 -p cbr -e 532 -c 2 -a 0 -i 31 -k RTR
h -t 16.202032464 -s 7 -d 10 -p cbr -e 532 -c 2 -a 0 -i 31 -k RTR
r -t 16.207885464 -s 10 -d 10 -p cbr -e 512 -c 2 -a 0 -i 31 -k AGT
+ -t 16.254688383 -s 0 -d -1 -p cbr -e 512 -c 2 -a 0 -i 32 -k AGT 
- -t 16.254688383 -s 0 -d -1 -p cbr -e 512 -c 2 -a 0 -i 32 -k AGT
h -t 16.254688383 -s 0 -d -1 -p cbr -e 512 -c 2 -a 0 -i 32 -k AGT
+ -t 16.254688383 -s 0 -d 3 -p cbr -e 532 -c 2 -a 0 -i 32 -k RTR 
- -t 16.254688383 -s 0 -d 3 -p cbr -e 532 -c 2 -a 0 -i 32 -k RTR
h -t 16.254688383 -s 0 -d 3 -p cbr -e 532 -c 2 -a 0 -i 32 -k RTR
+ -t 16.260638383 -s 3 -d 7 -p cbr -e 532 -c 2 -a 0 -i 32 -k RTR 
- -t 16.260638383 -s 3 -d 7 -p cbr -e 532 -c 2 -a 0 -i 32 -k RTR
h -t 16.260638383 -s 3 -d 7 -p cbr -e 532 -c 2 -a 0 -i 32 -k RTR
+ -t 16.266812619 -s 7 -d 10 -p cbr -e 532 -c 2 -a 0 -i 32 -k RTR 
- -t 16.266812619 -s 7 -d 10 -p cbr -e 532 -c 2 -a 0 -i 32 -k RTR
h -t 16.266812619 -s 7 -d 10 -p cbr -e 532 -c 2 -a 0 -i 32 -k RTR
r -t 16.273005619 -s 10 -d 10 -p cbr -e 512 -c 2 -a 0 -i 32 -k AGT
+ -t 16.296157422 -s 0 -d -1 -p cbr -e 512 -c 2 -a 0 -i 33 -k AGT 
- -t 16.296157422 -s 0 -d -1 -p cbr -e 512 -c 2 -a 0 -i 33 -k AGT
h -t 16.296157422 -s 0 -d -1 -p cbr -e 512 -c 2 -a 0 -i 33 -k AGT
+ -t 16.296157422 -s 0 -d 3 -p cbr -e 532 -c 2 -a 0 -i 33 -k RTR 
- -t 16.296157422 -s 0 -d 3 -p cbr -e 532 -c 2 -a 0 -i 33 -k RTR
h -t 16.296157422 -s 0 -d 3 -p cbr -e 532 -c 2 -a 0 -i 33 -k RTR
+ -t 16.301987422 -s 3 -d 7 -p cbr -e 532 -c 2 -a 0 -i 33 -k RTR 
- -t 16.301987422 -s 3 -d 7 -p cbr -e 532 -c 2 -a 0 -i 33 -k RTR
h -t 16.301987422 -s 3 -d 7 -p cbr -e 532 -c 2 -a 0 -i 33 -k RTR
+ -t 16.308121658 -s 7 -d 10 -p cbr -e 532 -c 2 -a 0 -i 33 -k RTR 
- -t 16.308121658 -s 7 -d 10 -p cbr -e 532 -c 2 -a 0 -i 33 -k RTR
h -t 16.308121658 -s 7 -d 10 -p cbr -e 532 -c 2 -a 0 -i 33 -k RTR
r -t 16.314294658 -s 10 -d 10 -p cbr -e 512 -c 2 -a 0 -i 33 -k AGT
+ -t 16.367519056 -s 0 -d -1 -p cbr -e 512 -c 2 -a 0 -i 34 -k AGT 
- -t 16.367519056 -s 0 -d -1 -p cbr -e 512 -c 2 -a 0 -i 34 -k AGT
h -t 16.367519056 -s 0 -d -1 -p cbr -e 512 -c 2 -a 0 -i 34 -k AGT
+ -t 16.367519056 -s 0 -d 3 -p cbr -e 532 -c 2 -a 0 -i 34 -k RTR 
- -t 16.367519056 -s 0 -d 3 -p cbr -e 532 -c 2 -a 0 -i 34 -k RTR
h -t 16.367519056 -s 0 -d 3 -p cbr -e 532 -c 2 -a 0 -i 34 -k RTR
+ -t 16.373269056 -s 3 -d 7 -p cbr -e 532 -c 2 -a 0 -i 34 -k RTR 
- -t 16.373269056 -s 3 -d 7 -p cbr -e 532 -c 2 -a 0 -i 34 -k RTR
h -t 16.373269056 -s 3 -d 7 -p cbr -e 532 -c 2 -a 0 -i 34 -k RTR
+ -t 16.379363292 -s 7 -d 10 -p cbr -e 532 -c 2 -a 0 -i 34 -k RTR 
- -t 16.379363292 -s 7 -d 10 -p cbr -e 532 -c 2 -a 0 -i 34 -k RTR
h -t 16.379363292 -s 7 -d 10 -p cbr -e 532 -c 2 -a 0 -i 34 -k RTR
r -t 16.385456292 -s 10 -d 10 -p cbr -e 512 -c 2 -a 0 -i 34 -k AGT
+ -t 16.422514641 -s 0 -d -1 -p cbr -e 512 -c 2 -a 0 -i 35 -k AGT 
- -t 16.422514641 -s 0 -d -1 -p cbr -e 512 -c 2 -a 0 -i 35 -k AGT
h -t 16.422514641 -s 0 -d -1 -p cbr -e 512 -c 2 -a 0 -i 35 -k AGT