s 0.000000000 _0_ RTR  --- 0 WCETT 284 [0 0 0 0] ------- [0:255 -1:255 1 0] [0x1 1 [0 2] 4.000000 ] (HELLO)
s 0.000000000 _1_ RTR  --- 0 WCETT 284 [0 0 0 0] ------- [1:255 -1:255 1 0] [0x1 1 [1 2] 4.000000 ] (HELLO)
s 0.000000000 _2_ RTR  --- 0 WCETT 284 [0 0 0 0] ------- [2:255 -1:255 1 0] [0x1 1 [2 2] 4.000000 ] (HELLO)
s 0.000000000 _3_ RTR  --- 0 WCETT 284 [0 0 0 0] ------- [3:255 -1:255 1 0] [0x1 1 [3 2] 4.000000 ] (HELLO)
s 0.000000000 _4_ RTR  --- 0 WCETT 284 [0 0 0 0] ------- [4:255 -1:255 1 0] [0x1 1 [4 2] 4.000000 ] (HELLO)
s 0.000000000 _5_ RTR  --- 0 WCETT 284 [0 0 0 0] ------- [5:255 -1:255 1 0] [0x1 1 [5 2] 4.000000 ] (HELLO)
s 0.000000000 _6_ RTR  --- 0 WCETT 284 [0 0 0 0] ------- [6:255 -1:255 1 0] [0x1 1 [6 2] 4.000000 ] (HELLO)
s 0.000000000 _7_ RTR  --- 0 WCETT 284 [0 0 0 0] ------- [7:255 -1:255 1 0] [0x1 1 [7 2] 4.000000 ] (HELLO)
s 0.000000000 _8_ RTR  --- 0 WCETT 284 [0 0 0 0] ------- [8:255 -1:255 1 0] [0x1 1 [8 2] 4.000000 ] (HELLO)
s 0.000000000 _9_ RTR  --- 0 WCETT 284 [0 0 0 0] ------- [9:255 -1:255 1 0] [0x1 1 [9 2] 4.000000 ] (HELLO)
s 0.000000000 _10_ RTR  --- 0 WCETT 284 [0 0 0 0] ------- [10:255 -1:255 1 0] [0x1 1 [10 2] 4.000000 ] (HELLO)
s 0.000000000 _11_ RTR  --- 0 WCETT 284 [0 0 0 0] ------- [11:255 -1:255 1 0] [0x1 1 [11 2] 4.000000 ] (HELLO)
s 0.000000000 _12_ RTR  --- 0 WCETT 284 [0 0 0 0] ------- [12:255 -1:255 1 0] [0x1 1 [12 2] 4.000000 ] (HELLO)
s 0.000000000 _13_ RTR  --- 0 WCETT 284 [0 0 0 0] ------- [13:255 -1:255 1 0] [0x1 1 [13 2] 4.000000 ] (HELLO)
s 0.000000000 _14_ RTR  --- 0 WCETT 284 [0 0 0 0] ------- [14:255 -1:255 1 0] [0x1 1 [14 2] 4.000000 ] (HELLO)
s 0.000000000 _15_ RTR  --- 0 WCETT 284 [0 0 0 0] ------- [15:255 -1:255 1 0] [0x1 1 [15 2] 4.000000 ] (HELLO)
s 0.000000000 _16_ RTR  --- 0 WCETT 284 [0 0 0 0] ------- [16:255 -1:255 1 0] [0x1 1 [16 2] 4.000000 ] (HELLO)
s 0.000000000 _17_ RTR  --- 0 WCETT 284 [0 0 0 0] ------- [17:255 -1:255 1 0] [0x1 1 [17 2] 4.000000 ] (HELLO)
s 0.000000000 _18_ RTR  --- 0 WCETT 284 [0 0 0 0] ------- [18:255 -1:255 1 0] [0x1 1 [18 2] 4.000000 ] (HELLO)
s 0.000000000 _19_ RTR  --- 0 WCETT 284 [0 0 0 0] ------- [19:255 -1:255 1 0] [0x1 1 [19 2] 4.000000 ] (HELLO)
s 0.000000000 _20_ RTR  --- 0 WCETT 284 [0 0 0 0] ------- [20:255 -1:255 1 0] [0x1 1 [20 2] 4.000000 ] (HELLO)
s 0.000000000 _21_ RTR  --- 0 WCETT 284 [0 0 0 0] ------- [21:255 -1:255 1 0] [0x1 1 [21 2] 4.000000 ] (HELLO)
s 0.000000000 _22_ RTR  --- 0 WCETT 284 [0 0 0 0] ------- [22:255 -1:255 1 0] [0x1 1 [22 2] 4.000000 ] (HELLO)
s 0.000000000 _23_ RTR  --- 0 WCETT 284 [0 0 0 0] ------- [23:255 -1:255 1 0] [0x1 1 [23 2] 4.000000 ] (HELLO)
s 0.000000000 _24_ RTR  --- 0 WCETT 284 [0 0 0 0] ------- [24:255 -1:255 1 0] [0x1 1 [24 2] 4.000000 ] (HELLO)
s 0.000000000 _25_ RTR  --- 0 WCETT 284 [0 0 0 0] ------- [25:255 -1:255 1 0] [0x1 1 [25 2] 4.000000 ] (HELLO)
s 0.000000000 _26_ RTR  --- 0 WCETT 284 [0 0 0 0] ------- [26:255 -1:255 1 0] [0x1 1 [26 2] 4.000000 ] (HELLO)
r 0.002788333 _2_ RTR  --- 0 WCETT 284 [0 ffffffff 5 800] ------- [5:255 -1:255 1 0] [0x1 1 [5 2] 4.000000 ] (HELLO)
r 0.002788333 _26_ RTR  --- 0 WCETT 284 [0 ffffffff 5 800] ------- [5:255 -1:255 1 0] [0x1 1 [5 2] 4.000000 ] (HELLO)
r 0.002788333 _8_ RTR  --- 0 WCETT 284 [0 ffffffff 5 800] ------- [5:255 -1:255 1 0] [0x1 1 [5 2] 4.000000 ] (HELLO)
r 0.002788471 _24_ RTR  --- 0 WCETT 284 [0 ffffffff 5 800] ------- [5:255 -1:255 1 0] [0x1 1 [5 2] 4.000000 ] (HELLO)
r 0.002788667 _4_ RTR  --- 0 WCETT 284 [0 ffffffff 5 800] ------- [5:255 -1:255 1 0] [0x1 1 [5 2] 4.000000 ] (HELLO)
r 0.002788667 _11_ RTR  --- 0 WCETT 284 [0 ffffffff 5 800] ------- [5:255 -1:255 1 0] [0x1 1 [5 2] 4.000000 ] (HELLO)
r 0.002788745 _1_ RTR  --- 0 WCETT 284 [0 ffffffff 5 800] ------- [5:255 -1:255 1 0] [0x1 1 [5 2] 4.000000 ] (HELLO)
r 0.006086667 _5_ RTR  --- 0 WCETT 284 [0 ffffffff 2 800] ------- [2:255 -1:255 1 0] [0x1 1 [2 2] 4.000000 ] (HELLO)
r 0.006086805 _26_ RTR  --- 0 WCETT 284 [0 ffffffff 2 800] ------- [2:255 -1:255 1 0] [0x1 1 [2 2] 4.000000 ] (HELLO)
r 0.006087000 _1_ RTR  --- 0 WCETT 284 [0 ffffffff 2 800] ------- [2:255 -1:255 1 0] [0x1 1 [2 2] 4.000000 ] (HELLO)
r 0.006087000 _8_ RTR  --- 0 WCETT 284 [0 ffffffff 2 800] ------- [2:255 -1:255 1 0] [0x1 1 [2 2] 4.000000 ] (HELLO)
r 0.006290667 _15_ RTR  --- 0 WCETT 284 [0 ffffffff c 800] ------- [12:255 -1:255 1 0] [0x1 1 [12 2] 4.000000 ] (HELLO)
r 0.006290805 _19_ RTR  --- 0 WCETT 284 [0 ffffffff c 800] ------- [12:255 -1:255 1 0] [0x1 1 [12 2] 4.000000 ] (HELLO)
r 0.009329138 _15_ RTR  --- 0 WCETT 284 [0 ffffffff 13 800] ------- [19:255 -1:255 1 0] [0x1 1 [19 2] 4.000000 ] (HELLO)
r 0.009329138 _21_ RTR  --- 0 WCETT 284 [0 ffffffff 13 800] ------- [19:255 -1:255 1 0] [0x1 1 [19 2] 4.000000 ] (HELLO)
r 0.009329138 _16_ RTR  --- 0 WCETT 284 [0 ffffffff 13 800] ------- [19:255 -1:255 1 0] [0x1 1 [19 2] 4.000000 ] (HELLO)
r 0.009329276 _12_ RTR  --- 0 WCETT 284 [0 ffffffff 13 800] ------- [19:255 -1:255 1 0] [0x1 1 [19 2] 4.000000 ] (HELLO)
r 0.009329276 _13_ RTR  --- 0 WCETT 284 [0 ffffffff 13 800] ------- [19:255 -1:255 1 0] [0x1 1 [19 2] 4.000000 ] (HELLO)
r 0.009329471 _23_ RTR  --- 0 WCETT 284 [0 ffffffff 13 800] ------- [19:255 -1:255 1 0] [0x1 1 [19 2] 4.000000 ] (HELLO)
r 0.009329471 _18_ RTR  --- 0 WCETT 284 [0 ffffffff 13 800] ------- [19:255 -1:255 1 0] [0x1 1 [19 2] 4.000000 ] (HELLO)
r 0.009329550 _9_ RTR  --- 0 WCETT 284 [0 ffffffff 13 800] ------- [19:255 -1:255 1 0] [0x1 1 [19 2] 4.000000 ] (HELLO)
r 0.009329550 _10_ RTR  --- 0 WCETT 284 [0 ffffffff 13 800] ------- [19:255 -1:255 1 0] [0x1 1 [19 2] 4.000000 ] (HELLO)
r 0.009329550 _20_ RTR  --- 0 WCETT 284 [0 ffffffff 13 800] ------- [19:255 -1:255 1 0] [0x1 1 [19 2] 4.000000 ] (HELLO)
r 0.012087805 _21_ RTR  --- 0 WCETT 284 [0 ffffffff 17 800] ------- [23:255 -1:255 1 0] [0x1 1 [23 2] 4.000000 ] (HELLO)
r 0.012087805 _9_ RTR  --- 0 WCETT 284 [0 ffffffff 17 800] ------- [23:255 -1:255 1 0] [0x1 1 [23 2] 4.000000 ] (HELLO)
r 0.012087805 _25_ RTR  --- 0 WCETT 284 [0 ffffffff 17 800] ------- [23:255 -1:255 1 0] [0x1 1 [23 2] 4.000000 ] (HELLO)
r 0.012087805 _10_ RTR  --- 0 WCETT 284 [0 ffffffff 17 800] ------- [23:255 -1:255 1 0] [0x1 1 [23 2] 4.000000 ] (HELLO)
r 0.012087943 _12_ RTR  --- 0 WCETT 284 [0 ffffffff 17 800] ------- [23:255 -1:255 1 0] [0x1 1 [23 2] 4.000000 ] (HELLO)
r 0.012087943 _6_ RTR  --- 0 WCETT 284 [0 ffffffff 17 800] ------- [23:255 -1:255 1 0] [0x1 1 [23 2] 4.000000 ] (HELLO)
r 0.012087943 _7_ RTR  --- 0 WCETT 284 [0 ffffffff 17 800] ------- [23:255 -1:255 1 0] [0x1 1 [23 2] 4.000000 ] (HELLO)
r 0.012087943 _13_ RTR  --- 0 WCETT 284 [0 ffffffff 17 800] ------- [23:255 -1:255 1 0] [0x1 1 [23 2] 4.000000 ] (HELLO)
r 0.012088138 _19_ RTR  --- 0 WCETT 284 [0 ffffffff 17 800] ------- [23:255 -1:255 1 0] [0x1 1 [23 2] 4.000000 ] (HELLO)
r 0.012088138 _22_ RTR  --- 0 WCETT 284 [0 ffffffff 17 800] ------- [23:255 -1:255 1 0] [0x1 1 [23 2] 4.000000 ] (HELLO)
r 0.012088217 _15_ RTR  --- 0 WCETT 284 [0 ffffffff 17 800] ------- [23:255 -1:255 1 0] [0x1 1 [23 2] 4.000000 ] (HELLO)
r 0.012088217 _3_ RTR  --- 0 WCETT 284 [0 ffffffff 17 800] ------- [23:255 -1:255 1 0] [0x1 1 [23 2] 4.000000 ] (HELLO)
r 0.012088217 _4_ RTR  --- 0 WCETT 284 [0 ffffffff 17 800] ------- [23:255 -1:255 1 0] [0x1 1 [23 2] 4.000000 ] (HELLO)
r 0.012088217 _16_ RTR  --- 0 WCETT 284 [0 ffffffff 17 800] ------- [23:255 -1:255 1 0] [0x1 1 [23 2] 4.000000 ] (HELLO)
r 0.012088217 _20_ RTR  --- 0 WCETT 284 [0 ffffffff 17 800] ------- [23:255 -1:255 1 0] [0x1 1 [23 2] 4.000000 ] (HELLO)
r 0.012088217 _24_ RTR  --- 0 WCETT 284 [0 ffffffff 17 800] ------- [23:255 -1:255 1 0] [0x1 1 [23 2] 4.000000 ] (HELLO)
r 0.014986276 _3_ RTR  --- 0 WCETT 284 [0 ffffffff 6 800] ------- [6:255 -1:255 1 0] [0x1 1 [6 2] 4.000000 ] (HELLO)
r 0.014986276 _9_ RTR  --- 0 WCETT 284 [0 ffffffff 6 800] ------- [6:255 -1:255 1 0] [0x1 1 [6 2] 4.000000 ] (HELLO)
r 0.014986276 _25_ RTR  --- 0 WCETT 284 [0 ffffffff 6 800] ------- [6:255 -1:255 1 0] [0x1 1 [6 2] 4.000000 ] (HELLO)
r 0.014986414 _23_ RTR  --- 0 WCETT 284 [0 ffffffff 6 800] ------- [6:255 -1:255 1 0] [0x1 1 [6 2] 4.000000 ] (HELLO)
r 0.014986609 _0_ RTR  --- 0 WCETT 284 [0 ffffffff 6 800] ------- [6:255 -1:255 1 0] [0x1 1 [6 2] 4.000000 ] (HELLO)
r 0.014986609 _12_ RTR  --- 0 WCETT 284 [0 ffffffff 6 800] ------- [6:255 -1:255 1 0] [0x1 1 [6 2] 4.000000 ] (HELLO)
r 0.014986609 _7_ RTR  --- 0 WCETT 284 [0 ffffffff 6 800] ------- [6:255 -1:255 1 0] [0x1 1 [6 2] 4.000000 ] (HELLO)
r 0.014986688 _21_ RTR  --- 0 WCETT 284 [0 ffffffff 6 800] ------- [6:255 -1:255 1 0] [0x1 1 [6 2] 4.000000 ] (HELLO)
r 0.014986688 _4_ RTR  --- 0 WCETT 284 [0 ffffffff 6 800] ------- [6:255 -1:255 1 0] [0x1 1 [6 2] 4.000000 ] (HELLO)
r 0.014986688 _10_ RTR  --- 0 WCETT 284 [0 ffffffff 6 800] ------- [6:255 -1:255 1 0] [0x1 1 [6 2] 4.000000 ] (HELLO)
r 0.017745021 _19_ RTR  --- 0 WCETT 284 [0 ffffffff 15 800] ------- [21:255 -1:255 1 0] [0x1 1 [21 2] 4.000000 ] (HELLO)
r 0.017745021 _12_ RTR  --- 0 WCETT 284 [0 ffffffff 15 800] ------- [21:255 -1:255 1 0] [0x1 1 [21 2] 4.000000 ] (HELLO)
r 0.017745021 _23_ RTR  --- 0 WCETT 284 [0 ffffffff 15 800] ------- [21:255 -1:255 1 0] [0x1 1 [21 2] 4.000000 ] (HELLO)
r 0.017745021 _13_ RTR  --- 0 WCETT 284 [0 ffffffff 15 800] ------- [21:255 -1:255 1 0] [0x1 1 [21 2] 4.000000 ] (HELLO)
r 0.017745160 _15_ RTR  --- 0 WCETT 284 [0 ffffffff 15 800] ------- [21:255 -1:255 1 0] [0x1 1 [21 2] 4.000000 ] (HELLO)
r 0.017745160 _9_ RTR  --- 0 WCETT 284 [0 ffffffff 15 800] ------- [21:255 -1:255 1 0] [0x1 1 [21 2] 4.000000 ] (HELLO)
r 0.017745160 _10_ RTR  --- 0 WCETT 284 [0 ffffffff 15 800] ------- [21:255 -1:255 1 0] [0x1 1 [21 2] 4.000000 ] (HELLO)
r 0.017745160 _16_ RTR  --- 0 WCETT 284 [0 ffffffff 15 800] ------- [21:255 -1:255 1 0] [0x1 1 [21 2] 4.000000 ] (HELLO)
r 0.017745355 _25_ RTR  --- 0 WCETT 284 [0 ffffffff 15 800] ------- [21:255 -1:255 1 0] [0x1 1 [21 2] 4.000000 ] (HELLO)
r 0.017745355 _20_ RTR  --- 0 WCETT 284 [0 ffffffff 15 800] ------- [21:255 -1:255 1 0] [0x1 1 [21 2] 4.000000 ] (HELLO)
r 0.017745434 _6_ RTR  --- 0 WCETT 284 [0 ffffffff 15 800] ------- [21:255 -1:255 1 0] [0x1 1 [21 2] 4.000000 ] (HELLO)
r 0.017745434 _7_ RTR  --- 0 WCETT 284 [0 ffffffff 15 800] ------- [21:255 -1:255 1 0] [0x1 1 [21 2] 4.000000 ] (HELLO)
r 0.017745434 _18_ RTR  --- 0 WCETT 284 [0 ffffffff 15 800] ------- [21:255 -1:255 1 0] [0x1 1 [21 2] 4.000000 ] (HELLO)
r 0.017745434 _22_ RTR  --- 0 WCETT 284 [0 ffffffff 15 800] ------- [21:255 -1:255 1 0] [0x1 1 [21 2] 4.000000 ] (HELLO)
r 0.020503767 _4_ RTR  --- 0 WCETT 284 [0 ffffffff 7 800] ------- [7:255 -1:255 1 0] [0x1 1 [7 2] 4.000000 ] (HELLO)
r 0.020503767 _25_ RTR  --- 0 WCETT 284 [0 ffffffff 7 800] ------- [7:255 -1:255 1 0] [0x1 1 [7 2] 4.000000 ] (HELLO)
r 0.020503767 _10_ RTR  --- 0 WCETT 284 [0 ffffffff 7 800] ------- [7:255 -1:255 1 0] [0x1 1 [7 2] 4.000000 ] (HELLO)
r 0.020503767 _24_ RTR  --- 0 WCETT 284 [0 ffffffff 7 800] ------- [7:255 -1:255 1 0] [0x1 1 [7 2] 4.000000 ] (HELLO)
r 0.020503905 _23_ RTR  --- 0 WCETT 284 [0 ffffffff 7 800] ------- [7:255 -1:255 1 0] [0x1 1 [7 2] 4.000000 ] (HELLO)
r 0.020503905 _22_ RTR  --- 0 WCETT 284 [0 ffffffff 7 800] ------- [7:255 -1:255 1 0] [0x1 1 [7 2] 4.000000 ] (HELLO)
r 0.020503905 _26_ RTR  --- 0 WCETT 284 [0 ffffffff 7 800] ------- [7:255 -1:255 1 0] [0x1 1 [7 2] 4.000000 ] (HELLO)
r 0.020504100 _1_ RTR  --- 0 WCETT 284 [0 ffffffff 7 800] ------- [7:255 -1:255 1 0] [0x1 1 [7 2] 4.000000 ] (HELLO)
r 0.020504100 _6_ RTR  --- 0 WCETT 284 [0 ffffffff 7 800] ------- [7:255 -1:255 1 0] [0x1 1 [7 2] 4.000000 ] (HELLO)
r 0.020504100 _13_ RTR  --- 0 WCETT 284 [0 ffffffff 7 800] ------- [7:255 -1:255 1 0] [0x1 1 [7 2] 4.000000 ] (HELLO)
r 0.020504100 _8_ RTR  --- 0 WCETT 284 [0 ffffffff 7 800] ------- [7:255 -1:255 1 0] [0x1 1 [7 2] 4.000000 ] (HELLO)
r 0.020504179 _21_ RTR  --- 0 WCETT 284 [0 ffffffff 7 800] ------- [7:255 -1:255 1 0] [0x1 1 [7 2] 4.000000 ] (HELLO)
r 0.020504179 _9_ RTR  --- 0 WCETT 284 [0 ffffffff 7 800] ------- [7:255 -1:255 1 0] [0x1 1 [7 2] 4.000000 ] (HELLO)
r 0.020504179 _3_ RTR  --- 0 WCETT 284 [0 ffffffff 7 800] ------- [7:255 -1:255 1 0] [0x1 1 [7 2] 4.000000 ] (HELLO)
r 0.020504179 _20_ RTR  --- 0 WCETT 284 [0 ffffffff 7 800] ------- [7:255 -1:255 1 0] [0x1 1 [7 2] 4.000000 ] (HELLO)
r 0.020504179 _5_ RTR  --- 0 WCETT 284 [0 ffffffff 7 800] ------- [7:255 -1:255 1 0] [0x1 1 [7 2] 4.000000 ] (HELLO)
r 0.020504179 _11_ RTR  --- 0 WCETT 284 [0 ffffffff 7 800] ------- [7:255 -1:255 1 0] [0x1 1 [7 2] 4.000000 ] (HELLO)
r 0.023282100 _23_ RTR  --- 0 WCETT 284 [0 ffffffff a 800] ------- [10:255 -1:255 1 0] [0x1 1 [10 2] 4.000000 ] (HELLO)
r 0.023282100 _22_ RTR  --- 0 WCETT 284 [0 ffffffff a 800] ------- [10:255 -1:255 1 0] [0x1 1 [10 2] 4.000000 ] (HELLO)
r 0.023282238 _10_ RTR  --- 0 WCETT 284 [0 ffffffff 16 800] ------- [22:255 -1:255 1 0] [0x1 1 [22 2] 4.000000 ] (HELLO)
r 0.023282238 _11_ RTR  --- 0 WCETT 284 [0 ffffffff 16 800] ------- [22:255 -1:255 1 0] [0x1 1 [22 2] 4.000000 ] (HELLO)
r 0.023282767 _0_ RTR  --- 0 WCETT 284 [0 ffffffff 1 800] ------- [1:255 -1:255 1 0] [0x1 1 [1 2] 4.000000 ] (HELLO)
r 0.026425179 _22_ RTR  --- 0 WCETT 284 [0 ffffffff 18 800] ------- [24:255 -1:255 1 0] [0x1 1 [24 2] 4.000000 ] (HELLO)
r 0.026425179 _7_ RTR  --- 0 WCETT 284 [0 ffffffff 18 800] ------- [24:255 -1:255 1 0] [0x1 1 [24 2] 4.000000 ] (HELLO)
r 0.026425179 _26_ RTR  --- 0 WCETT 284 [0 ffffffff 18 800] ------- [24:255 -1:255 1 0] [0x1 1 [24 2] 4.000000 ] (HELLO)
r 0.026425179 _8_ RTR  --- 0 WCETT 284 [0 ffffffff 18 800] ------- [24:255 -1:255 1 0] [0x1 1 [24 2] 4.000000 ] (HELLO)
r 0.026425317 _4_ RTR  --- 0 WCETT 284 [0 ffffffff 18 800] ------- [24:255 -1:255 1 0] [0x1 1 [24 2] 4.000000 ] (HELLO)
r 0.026425317 _5_ RTR  --- 0 WCETT 284 [0 ffffffff 18 800] ------- [24:255 -1:255 1 0] [0x1 1 [24 2] 4.000000 ] (HELLO)
r 0.026425317 _11_ RTR  --- 0 WCETT 284 [0 ffffffff 18 800] ------- [24:255 -1:255 1 0] [0x1 1 [24 2] 4.000000 ] (HELLO)
r 0.026425591 _1_ RTR  --- 0 WCETT 284 [0 ffffffff 18 800] ------- [24:255 -1:255 1 0] [0x1 1 [24 2] 4.000000 ] (HELLO)
r 0.026425591 _2_ RTR  --- 0 WCETT 284 [0 ffffffff 18 800] ------- [24:255 -1:255 1 0] [0x1 1 [24 2] 4.000000 ] (HELLO)
r 0.029568572 _18_ RTR  --- 0 WCETT 284 [0 ffffffff 14 800] ------- [20:255 -1:255 1 0] [0x1 1 [20 2] 4.000000 ] (HELLO)
r 0.029568572 _13_ RTR  --- 0 WCETT 284 [0 ffffffff 14 800] ------- [20:255 -1:255 1 0] [0x1 1 [20 2] 4.000000 ] (HELLO)
r 0.029568572 _22_ RTR  --- 0 WCETT 284 [0 ffffffff 14 800] ------- [20:255 -1:255 1 0] [0x1 1 [20 2] 4.000000 ] (HELLO)
r 0.029568572 _14_ RTR  --- 0 WCETT 284 [0 ffffffff 14 800] ------- [20:255 -1:255 1 0] [0x1 1 [20 2] 4.000000 ] (HELLO)
r 0.029568710 _16_ RTR  --- 0 WCETT 284 [0 ffffffff 14 800] ------- [20:255 -1:255 1 0] [0x1 1 [20 2] 4.000000 ] (HELLO)
r 0.029568710 _10_ RTR  --- 0 WCETT 284 [0 ffffffff 14 800] ------- [20:255 -1:255 1 0] [0x1 1 [20 2] 4.000000 ] (HELLO)
r 0.029568710 _11_ RTR  --- 0 WCETT 284 [0 ffffffff 14 800] ------- [20:255 -1:255 1 0] [0x1 1 [20 2] 4.000000 ] (HELLO)
r 0.029568710 _17_ RTR  --- 0 WCETT 284 [0 ffffffff 14 800] ------- [20:255 -1:255 1 0] [0x1 1 [20 2] 4.000000 ] (HELLO)
r 0.029568984 _19_ RTR  --- 0 WCETT 284 [0 ffffffff 14 800] ------- [20:255 -1:255 1 0] [0x1 1 [20 2] 4.000000 ] (HELLO)
r 0.029568984 _8_ RTR  --- 0 WCETT 284 [0 ffffffff 14 800] ------- [20:255 -1:255 1 0] [0x1 1 [20 2] 4.000000 ] (HELLO)
r 0.029569591 _0_ RTR  --- 0 WCETT 284 [0 ffffffff 3 800] ------- [3:255 -1:255 1 0] [0x1 1 [3 2] 4.000000 ] (HELLO)
r 0.032387043 _14_ RTR  --- 0 WCETT 284 [0 ffffffff 11 800] ------- [17:255 -1:255 1 0] [0x1 1 [17 2] 4.000000 ] (HELLO)
r 0.032387043 _18_ RTR  --- 0 WCETT 284 [0 ffffffff 11 800] ------- [17:255 -1:255 1 0] [0x1 1 [17 2] 4.000000 ] (HELLO)
r 0.032387181 _20_ RTR  --- 0 WCETT 284 [0 ffffffff 11 800] ------- [17:255 -1:255 1 0] [0x1 1 [17 2] 4.000000 ] (HELLO)
r 0.032387376 _11_ RTR  --- 0 WCETT 284 [0 ffffffff 11 800] ------- [17:255 -1:255 1 0] [0x1 1 [17 2] 4.000000 ] (HELLO)
r 0.032387376 _16_ RTR  --- 0 WCETT 284 [0 ffffffff 11 800] ------- [17:255 -1:255 1 0] [0x1 1 [17 2] 4.000000 ] (HELLO)
r 0.032387455 _22_ RTR  --- 0 WCETT 284 [0 ffffffff 11 800] ------- [17:255 -1:255 1 0] [0x1 1 [17 2] 4.000000 ] (HELLO)
r 0.032387455 _13_ RTR  --- 0 WCETT 284 [0 ffffffff 11 800] ------- [17:255 -1:255 1 0] [0x1 1 [17 2] 4.000000 ] (HELLO)
r 0.033032238 _3_ RTR  --- 0 WCETT 284 [0 ffffffff 0 800] ------- [0:255 -1:255 1 0] [0x1 1 [0 2] 4.000000 ] (HELLO)
r 0.035225376 _11_ RTR  --- 0 WCETT 284 [0 ffffffff e 800] ------- [14:255 -1:255 1 0] [0x1 1 [14 2] 4.000000 ] (HELLO)
r 0.035225376 _20_ RTR  --- 0 WCETT 284 [0 ffffffff e 800] ------- [14:255 -1:255 1 0] [0x1 1 [14 2] 4.000000 ] (HELLO)
r 0.035225376 _17_ RTR  --- 0 WCETT 284 [0 ffffffff e 800] ------- [14:255 -1:255 1 0] [0x1 1 [14 2] 4.000000 ] (HELLO)
r 0.035225514 _22_ RTR  --- 0 WCETT 284 [0 ffffffff e 800] ------- [14:255 -1:255 1 0] [0x1 1 [14 2] 4.000000 ] (HELLO)
r 0.035225514 _18_ RTR  --- 0 WCETT 284 [0 ffffffff e 800] ------- [14:255 -1:255 1 0] [0x1 1 [14 2] 4.000000 ] (HELLO)
r 0.035225710 _13_ RTR  --- 0 WCETT 284 [0 ffffffff e 800] ------- [14:255 -1:255 1 0] [0x1 1 [14 2] 4.000000 ] (HELLO)
r 0.035225788 _16_ RTR  --- 0 WCETT 284 [0 ffffffff e 800] ------- [14:255 -1:255 1 0] [0x1 1 [14 2] 4.000000 ] (HELLO)
r 0.038103710 _8_ RTR  --- 0 WCETT 284 [0 ffffffff b 800] ------- [11:255 -1:255 1 0] [0x1 1 [11 2] 4.000000 ] (HELLO)
r 0.038103710 _22_ RTR  --- 0 WCETT 284 [0 ffffffff b 800] ------- [11:255 -1:255 1 0] [0x1 1 [11 2] 4.000000 ] (HELLO)
r 0.038103710 _14_ RTR  --- 0 WCETT 284 [0 ffffffff b 800] ------- [11:255 -1:255 1 0] [0x1 1 [11 2] 4.000000 ] (HELLO)
r 0.038103848 _24_ RTR  --- 0 WCETT 284 [0 ffffffff b 800] ------- [11:255 -1:255 1 0] [0x1 1 [11 2] 4.000000 ] (HELLO)
r 0.038103848 _20_ RTR  --- 0 WCETT 284 [0 ffffffff b 800] ------- [11:255 -1:255 1 0] [0x1 1 [11 2] 4.000000 ] (HELLO)
r 0.038104043 _5_ RTR  --- 0 WCETT 284 [0 ffffffff b 800] ------- [11:255 -1:255 1 0] [0x1 1 [11 2] 4.000000 ] (HELLO)
r 0.038104043 _10_ RTR  --- 0 WCETT 284 [0 ffffffff b 800] ------- [11:255 -1:255 1 0] [0x1 1 [11 2] 4.000000 ] (HELLO)
r 0.038104043 _17_ RTR  --- 0 WCETT 284 [0 ffffffff b 800] ------- [11:255 -1:255 1 0] [0x1 1 [11 2] 4.000000 ] (HELLO)
r 0.038104122 _26_ RTR  --- 0 WCETT 284 [0 ffffffff b 800] ------- [11:255 -1:255 1 0] [0x1 1 [11 2] 4.000000 ] (HELLO)
r 0.038104122 _18_ RTR  --- 0 WCETT 284 [0 ffffffff b 800] ------- [11:255 -1:255 1 0] [0x1 1 [11 2] 4.000000 ] (HELLO)
r 0.038104122 _13_ RTR  --- 0 WCETT 284 [0 ffffffff b 800] ------- [11:255 -1:255 1 0] [0x1 1 [11 2] 4.000000 ] (HELLO)
r 0.038104122 _7_ RTR  --- 0 WCETT 284 [0 ffffffff b 800] ------- [11:255 -1:255 1 0] [0x1 1 [11 2] 4.000000 ] (HELLO)
r 0.040902455 _24_ RTR  --- 0 WCETT 284 [0 ffffffff 1a 800] ------- [26:255 -1:255 1 0] [0x1 1 [26 2] 4.000000 ] (HELLO)
r 0.040902455 _4_ RTR  --- 0 WCETT 284 [0 ffffffff 1a 800] ------- [26:255 -1:255 1 0] [0x1 1 [26 2] 4.000000 ] (HELLO)
r 0.040902455 _5_ RTR  --- 0 WCETT 284 [0 ffffffff 1a 800] ------- [26:255 -1:255 1 0] [0x1 1 [26 2] 4.000000 ] (HELLO)
r 0.040902593 _7_ RTR  --- 0 WCETT 284 [0 ffffffff 1a 800] ------- [26:255 -1:255 1 0] [0x1 1 [26 2] 4.000000 ] (HELLO)
r 0.040902593 _1_ RTR  --- 0 WCETT 284 [0 ffffffff 1a 800] ------- [26:255 -1:255 1 0] [0x1 1 [26 2] 4.000000 ] (HELLO)
r 0.040902593 _2_ RTR  --- 0 WCETT 284 [0 ffffffff 1a 800] ------- [26:255 -1:255 1 0] [0x1 1 [26 2] 4.000000 ] (HELLO)
r 0.040902593 _8_ RTR  --- 0 WCETT 284 [0 ffffffff 1a 800] ------- [26:255 -1:255 1 0] [0x1 1 [26 2] 4.000000 ] (HELLO)
r 0.040902788 _22_ RTR  --- 0 WCETT 284 [0 ffffffff 1a 800] ------- [26:255 -1:255 1 0] [0x1 1 [26 2] 4.000000 ] (HELLO)
r 0.040902867 _10_ RTR  --- 0 WCETT 284 [0 ffffffff 1a 800] ------- [26:255 -1:255 1 0] [0x1 1 [26 2] 4.000000 ] (HELLO)
r 0.040902867 _25_ RTR  --- 0 WCETT 284 [0 ffffffff 1a 800] ------- [26:255 -1:255 1 0] [0x1 1 [26 2] 4.000000 ] (HELLO)
r 0.040902867 _11_ RTR  --- 0 WCETT 284 [0 ffffffff 1a 800] ------- [26:255 -1:255 1 0] [0x1 1 [26 2] 4.000000 ] (HELLO)
r 0.043660788 _1_ RTR  --- 0 WCETT 284 [0 ffffffff 4 800] ------- [4:255 -1:255 1 0] [0x1 1 [4 2] 4.000000 ] (HELLO)
r 0.043660788 _7_ RTR  --- 0 WCETT 284 [0 ffffffff 4 800] ------- [4:255 -1:255 1 0] [0x1 1 [4 2] 4.000000 ] (HELLO)
r 0.043660788 _26_ RTR  --- 0 WCETT 284 [0 ffffffff 4 800] ------- [4:255 -1:255 1 0] [0x1 1 [4 2] 4.000000 ] (HELLO)
r 0.043660926 _25_ RTR  --- 0 WCETT 284 [0 ffffffff 4 800] ------- [4:255 -1:255 1 0] [0x1 1 [4 2] 4.000000 ] (HELLO)
r 0.043660926 _24_ RTR  --- 0 WCETT 284 [0 ffffffff 4 800] ------- [4:255 -1:255 1 0] [0x1 1 [4 2] 4.000000 ] (HELLO)
r 0.043661122 _3_ RTR  --- 0 WCETT 284 [0 ffffffff 4 800] ------- [4:255 -1:255 1 0] [0x1 1 [4 2] 4.000000 ] (HELLO)
r 0.043661122 _10_ RTR  --- 0 WCETT 284 [0 ffffffff 4 800] ------- [4:255 -1:255 1 0] [0x1 1 [4 2] 4.000000 ] (HELLO)
r 0.043661122 _5_ RTR  --- 0 WCETT 284 [0 ffffffff 4 800] ------- [4:255 -1:255 1 0] [0x1 1 [4 2] 4.000000 ] (HELLO)
r 0.043661200 _23_ RTR  --- 0 WCETT 284 [0 ffffffff 4 800] ------- [4:255 -1:255 1 0] [0x1 1 [4 2] 4.000000 ] (HELLO)
r 0.043661200 _6_ RTR  --- 0 WCETT 284 [0 ffffffff 4 800] ------- [4:255 -1:255 1 0] [0x1 1 [4 2] 4.000000 ] (HELLO)
r 0.043661200 _0_ RTR  --- 0 WCETT 284 [0 ffffffff 4 800] ------- [4:255 -1:255 1 0] [0x1 1 [4 2] 4.000000 ] (HELLO)
r 0.043661200 _22_ RTR  --- 0 WCETT 284 [0 ffffffff 4 800] ------- [4:255 -1:255 1 0] [0x1 1 [4 2] 4.000000 ] (HELLO)
r 0.043661200 _2_ RTR  --- 0 WCETT 284 [0 ffffffff 4 800] ------- [4:255 -1:255 1 0] [0x1 1 [4 2] 4.000000 ] (HELLO)
r 0.043661200 _8_ RTR  --- 0 WCETT 284 [0 ffffffff 4 800] ------- [4:255 -1:255 1 0] [0x1 1 [4 2] 4.000000 ] (HELLO)
r 0.046439534 _5_ RTR  --- 0 WCETT 284 [0 ffffffff 8 800] ------- [8:255 -1:255 1 0] [0x1 1 [8 2] 4.000000 ] (HELLO)
r 0.046439534 _24_ RTR  --- 0 WCETT 284 [0 ffffffff 8 800] ------- [8:255 -1:255 1 0] [0x1 1 [8 2] 4.000000 ] (HELLO)
r 0.046439534 _11_ RTR  --- 0 WCETT 284 [0 ffffffff 8 800] ------- [8:255 -1:255 1 0] [0x1 1 [8 2] 4.000000 ] (HELLO)
r 0.046439672 _26_ RTR  --- 0 WCETT 284 [0 ffffffff 8 800] ------- [8:255 -1:255 1 0] [0x1 1 [8 2] 4.000000 ] (HELLO)
r 0.046439672 _22_ RTR  --- 0 WCETT 284 [0 ffffffff 8 800] ------- [8:255 -1:255 1 0] [0x1 1 [8 2] 4.000000 ] (HELLO)
r 0.046439867 _2_ RTR  --- 0 WCETT 284 [0 ffffffff 8 800] ------- [8:255 -1:255 1 0] [0x1 1 [8 2] 4.000000 ] (HELLO)
r 0.046439867 _7_ RTR  --- 0 WCETT 284 [0 ffffffff 8 800] ------- [8:255 -1:255 1 0] [0x1 1 [8 2] 4.000000 ] (HELLO)
r 0.046439867 _14_ RTR  --- 0 WCETT 284 [0 ffffffff 8 800] ------- [8:255 -1:255 1 0] [0x1 1 [8 2] 4.000000 ] (HELLO)
r 0.046439946 _20_ RTR  --- 0 WCETT 284 [0 ffffffff 8 800] ------- [8:255 -1:255 1 0] [0x1 1 [8 2] 4.000000 ] (HELLO)
r 0.046439946 _10_ RTR  --- 0 WCETT 284 [0 ffffffff 8 800] ------- [8:255 -1:255 1 0] [0x1 1 [8 2] 4.000000 ] (HELLO)
r 0.046439946 _4_ RTR  --- 0 WCETT 284 [0 ffffffff 8 800] ------- [8:255 -1:255 1 0] [0x1 1 [8 2] 4.000000 ] (HELLO)
r 0.049562477 _10_ RTR  --- 0 WCETT 284 [0 ffffffff d 800] ------- [13:255 -1:255 1 0] [0x1 1 [13 2] 4.000000 ] (HELLO)
r 0.049562477 _16_ RTR  --- 0 WCETT 284 [0 ffffffff d 800] ------- [13:255 -1:255 1 0] [0x1 1 [13 2] 4.000000 ] (HELLO)
r 0.049562477 _20_ RTR  --- 0 WCETT 284 [0 ffffffff d 800] ------- [13:255 -1:255 1 0] [0x1 1 [13 2] 4.000000 ] (HELLO)
r 0.049562615 _18_ RTR  --- 0 WCETT 284 [0 ffffffff d 800] ------- [13:255 -1:255 1 0] [0x1 1 [13 2] 4.000000 ] (HELLO)
r 0.049562615 _22_ RTR  --- 0 WCETT 284 [0 ffffffff d 800] ------- [13:255 -1:255 1 0] [0x1 1 [13 2] 4.000000 ] (HELLO)
r 0.049562810 _14_ RTR  --- 0 WCETT 284 [0 ffffffff d 800] ------- [13:255 -1:255 1 0] [0x1 1 [13 2] 4.000000 ] (HELLO)
r 0.049562889 _9_ RTR  --- 0 WCETT 284 [0 ffffffff d 800] ------- [13:255 -1:255 1 0] [0x1 1 [13 2] 4.000000 ] (HELLO)
r 0.049562889 _11_ RTR  --- 0 WCETT 284 [0 ffffffff d 800] ------- [13:255 -1:255 1 0] [0x1 1 [13 2] 4.000000 ] (HELLO)
r 0.049562889 _17_ RTR  --- 0 WCETT 284 [0 ffffffff d 800] ------- [13:255 -1:255 1 0] [0x1 1 [13 2] 4.000000 ] (HELLO)
r 0.049562908 _6_ RTR  --- 0 WCETT 284 [0 ffffffff 9 800] ------- [9:255 -1:255 1 0] [0x1 1 [9 2] 4.000000 ] (HELLO)
r 0.049563241 _3_ RTR  --- 0 WCETT 284 [0 ffffffff 9 800] ------- [9:255 -1:255 1 0] [0x1 1 [9 2] 4.000000 ] (HELLO)
r 0.049563320 _13_ RTR  --- 0 WCETT 284 [0 ffffffff 9 800] ------- [9:255 -1:255 1 0] [0x1 1 [9 2] 4.000000 ] (HELLO)
r 0.052705379 _23_ RTR  --- 0 WCETT 284 [0 ffffffff 19 800] ------- [25:255 -1:255 1 0] [0x1 1 [25 2] 4.000000 ] (HELLO)
r 0.052705379 _6_ RTR  --- 0 WCETT 284 [0 ffffffff 19 800] ------- [25:255 -1:255 1 0] [0x1 1 [25 2] 4.000000 ] (HELLO)
r 0.052705379 _7_ RTR  --- 0 WCETT 284 [0 ffffffff 19 800] ------- [25:255 -1:255 1 0] [0x1 1 [25 2] 4.000000 ] (HELLO)
r 0.052705518 _9_ RTR  --- 0 WCETT 284 [0 ffffffff 19 800] ------- [25:255 -1:255 1 0] [0x1 1 [25 2] 4.000000 ] (HELLO)
r 0.052705518 _3_ RTR  --- 0 WCETT 284 [0 ffffffff 19 800] ------- [25:255 -1:255 1 0] [0x1 1 [25 2] 4.000000 ] (HELLO)
r 0.052705518 _4_ RTR  --- 0 WCETT 284 [0 ffffffff 19 800] ------- [25:255 -1:255 1 0] [0x1 1 [25 2] 4.000000 ] (HELLO)
r 0.052705792 _0_ RTR  --- 0 WCETT 284 [0 ffffffff 19 800] ------- [25:255 -1:255 1 0] [0x1 1 [25 2] 4.000000 ] (HELLO)
r 0.052705792 _1_ RTR  --- 0 WCETT 284 [0 ffffffff 19 800] ------- [25:255 -1:255 1 0] [0x1 1 [25 2] 4.000000 ] (HELLO)
r 0.052705792 _26_ RTR  --- 0 WCETT 284 [0 ffffffff 19 800] ------- [25:255 -1:255 1 0] [0x1 1 [25 2] 4.000000 ] (HELLO)
r 0.052706110 _17_ RTR  --- 0 WCETT 284 [0 ffffffff 12 800] ------- [18:255 -1:255 1 0] [0x1 1 [18 2] 4.000000 ] (HELLO)
r 0.052706248 _14_ RTR  --- 0 WCETT 284 [0 ffffffff 12 800] ------- [18:255 -1:255 1 0] [0x1 1 [18 2] 4.000000 ] (HELLO)
s 1.000000000 _0_ RTR  --- 0 WCETT 284 [0 0 0 0] ------- [0:255 -1:255 1 0] [0x1 1 [0 12] 4.000000 ] (HELLO)
s 1.000000000 _1_ RTR  --- 0 WCETT 284 [0 0 0 0] ------- [1:255 -1:255 1 0] [0x1 1 [1 16] 4.000000 ] (HELLO)
s 1.000000000 _2_ RTR  --- 0 WCETT 284 [0 0 0 0] ------- [2:255 -1:255 1 0] [0x1 1 [2 12] 4.000000 ] (HELLO)
s 1.000000000 _3_ RTR  --- 0 WCETT 284 [0 0 0 0] ------- [3:255 -1:255 1 0] [0x1 1 [3 16] 4.000000 ] (HELLO)
s 1.000000000 _4_ RTR  --- 0 WCETT 284 [0 0 0 0] ------- [4:255 -1:255 1 0] [0x1 1 [4 18] 4.000000 ] (HELLO)
s 1.000000000 _5_ RTR  --- 0 WCETT 284 [0 0 0 0] ------- [5:255 -1:255 1 0] [0x1 1 [5 16] 4.000000 ] (HELLO)
s 1.000000000 _6_ RTR  --- 0 WCETT 284 [0 0 0 0] ------- [6:255 -1:255 1 0] [0x1 1 [6 14] 4.000000 ] (HELLO)
s 1.000000000 _7_ RTR  --- 0 WCETT 284 [0 0 0 0] ------- [7:255 -1:255 1 0] [0x1 1 [7 20] 4.000000 ] (HELLO)
s 1.000000000 _8_ RTR  --- 0 WCETT 284 [0 0 0 0] ------- [8:255 -1:255 1 0] [0x1 1 [8 18] 4.000000 ] (HELLO)
s 1.000000000 _9_ RTR  --- 0 WCETT 284 [0 0 0 0] ------- [9:255 -1:255 1 0] [0x1 1 [9 16] 4.000000 ] (HELLO)
s 1.000000000 _10_ RTR  --- 0 WCETT 284 [0 0 0 0] ------- [10:255 -1:255 1 0] [0x1 1 [10 26] 4.000000 ] (HELLO)
s 1.000000000 _11_ RTR  --- 0 WCETT 284 [0 0 0 0] ------- [11:255 -1:255 1 0] [0x1 1 [11 22] 4.000000 ] (HELLO)
s 1.000000000 _12_ RTR  --- 0 WCETT 284 [0 0 0 0] ------- [12:255 -1:255 1 0] [0x1 1 [12 10] 4.000000 ] (HELLO)
s 1.000000000 _13_ RTR  --- 0 WCETT 284 [0 0 0 0] ------- [13:255 -1:255 1 0] [0x1 1 [13 20] 4.000000 ] (HELLO)
s 1.000000000 _14_ RTR  --- 0 WCETT 284 [0 0 0 0] ------- [14:255 -1:255 1 0] [0x1 1 [14 14] 4.000000 ] (HELLO)
s 1.000000000 _15_ RTR  --- 0 WCETT 284 [0 0 0 0] ------- [15:255 -1:255 1 0] [0x1 1 [15 10] 4.000000 ] (HELLO)
s 1.000000000 _16_ RTR  --- 0 WCETT 284 [0 0 0 0] ------- [16:255 -1:255 1 0] [0x1 1 [16 16] 4.000000 ] (HELLO)
s 1.000000000 _17_ RTR  --- 0 WCETT 284 [0 0 0 0] ------- [17:255 -1:255 1 0] [0x1 1 [17 12] 4.000000 ] (HELLO)
s 1.000000000 _18_ RTR  --- 0 WCETT 284 [0 0 0 0] ------- [18:255 -1:255 1 0] [0x1 1 [18 16] 4.000000 ] (HELLO)
s 1.000000000 _19_ RTR  --- 0 WCETT 284 [0 0 0 0] ------- [19:255 -1:255 1 0] [0x1 1 [19 10] 4.000000 ] (HELLO)
s 1.000000000 _20_ RTR  --- 0 WCETT 284 [0 0 0 0] ------- [20:255 -1:255 1 0] [0x1 1 [20 20] 4.000000 ] (HELLO)
s 1.000000000 _21_ RTR  --- 0 WCETT 284 [0 0 0 0] ------- [21:255 -1:255 1 0] [0x1 1 [21 10] 4.000000 ] (HELLO)
s 1.000000000 _22_ RTR  --- 0 WCETT 284 [0 0 0 0] ------- [22:255 -1:255 1 0] [0x1 1 [22 28] 4.000000 ] (HELLO)
s 1.000000000 _23_ RTR  --- 0 WCETT 284 [0 0 0 0] ------- [23:255 -1:255 1 0] [0x1 1 [23 16] 4.000000 ] (HELLO)
s 1.000000000 _24_ RTR  --- 0 WCETT 284 [0 0 0 0] ------- [24:255 -1:255 1 0] [0x1 1 [24 16] 4.000000 ] (HELLO)
s 1.000000000 _25_ RTR  --- 0 WCETT 284 [0 0 0 0] ------- [25:255 -1:255 1 0] [0x1 1 [25 14] 4.000000 ] (HELLO)
s 1.000000000 _26_ RTR  --- 0 WCETT 284 [0 0 0 0] ------- [26:255 -1:255 1 0] [0x1 1 [26 18] 4.000000 ] (HELLO)
r 1.002788333 _1_ RTR  --- 0 WCETT 284 [0 ffffffff 4 800] ------- [4:255 -1:255 1 0] [0x1 1 [4 18] 4.000000 ] (HELLO)
r 1.002788333 _7_ RTR  --- 0 WCETT 284 [0 ffffffff 4 800] ------- [4:255 -1:255 1 0] [0x1 1 [4 18] 4.000000 ] (HELLO)
r 1.002788333 _26_ RTR  --- 0 WCETT 284 [0 ffffffff 4 800] ------- [4:255 -1:255 1 0] [0x1 1 [4 18] 4.000000 ] (HELLO)
r 1.002788471 _25_ RTR  --- 0 WCETT 284 [0 ffffffff 4 800] ------- [4:255 -1:255 1 0] [0x1 1 [4 18] 4.000000 ] (HELLO)
r 1.002788471 _24_ RTR  --- 0 WCETT 284 [0 ffffffff 4 800] ------- [4:255 -1:255 1 0] [0x1 1 [4 18] 4.000000 ] (HELLO)
r 1.002788667 _3_ RTR  --- 0 WCETT 284 [0 ffffffff 4 800] ------- [4:255 -1:255 1 0] [0x1 1 [4 18] 4.000000 ] (HELLO)
r 1.002788667 _10_ RTR  --- 0 WCETT 284 [0 ffffffff 4 800] ------- [4:255 -1:255 1 0] [0x1 1 [4 18] 4.000000 ] (HELLO)
r 1.002788667 _5_ RTR  --- 0 WCETT 284 [0 ffffffff 4 800] ------- [4:255 -1:255 1 0] [0x1 1 [4 18] 4.000000 ] (HELLO)
r 1.002788745 _23_ RTR  --- 0 WCETT 284 [0 ffffffff 4 800] ------- [4:255 -1:255 1 0] [0x1 1 [4 18] 4.000000 ] (HELLO)
r 1.002788745 _6_ RTR  --- 0 WCETT 284 [0 ffffffff 4 800] ------- [4:255 -1:255 1 0] [0x1 1 [4 18] 4.000000 ] (HELLO)