n -t * -s 0  -x 100 -y 100 -Z 0 -z 30  -v circle -c black
n -t * -s 1  -x 300 -y 100 -Z 0 -z 30  -v circle -c black
n -t * -s 2  -x 500 -y 100 -Z 0 -z 30  -v circle -c black
n -t * -s 3  -x 100 -y 200 -Z 0 -z 30  -v circle -c black
n -t * -s 4  -x 300 -y 200 -Z 0 -z 30  -v circle -c black
n -t * -s 5  -x 500 -y 200 -Z 0 -z 30  -v circle -c black
n -t * -s 6  -x 100 -y 300 -Z 0 -z 30  -v circle -c black
n -t * -s 7  -x 300 -y 300 -Z 0 -z 30  -v circle -c black
n -t * -s 8  -x 500 -y 300 -Z 0 -z 30  -v circle -c black
n -t * -s 9  -x 100 -y 500 -Z 0 -z 30  -v circle -c black
n -t * -s 10  -x 300 -y 500 -Z 0 -z 30  -v circle -c black
n -t * -s 11  -x 500 -y 500 -Z 0 -z 30  -v circle -c black
n -t * -s 12  -x 500 -y 400 -Z 0 -z 30  -v circle -c black
n -t * -s 13  -x 300 -y 400 -Z 0 -z 30  -v circle -c black
V -t * -v 1.0a5 -a 0
W -t * -x 500 -y 500
A -t * -n 1 -p 0 -o 0xffffffff -c 31 -a 1
A -t * -h 1 -m 2147483647 -s 0
+ -t 15.000000000 -s 0 -d -1 -p cbr -e 512 -c 2 -a 0 -i 0 -k AGT 
- -t 15.000000000 -s 0 -d -1 -p cbr -e 512 -c 2 -a 0 -i 0 -k AGT
h -t 15.000000000 -s 0 -d -1 -p cbr -e 512 -c 2 -a 0 -i 0 -k AGT
+ -t 15.000000000 -s 1 -d -1 -p cbr -e 512 -c 2 -a 0 -i 2 -k AGT 
- -t 15.000000000 -s 1 -d -1 -p cbr -e 512 -c 2 -a 0 -i 2 -k AGT
h -t 15.000000000 -s 1 -d -1 -p cbr -e 512 -c 2 -a 0 -i 2 -k AGT
+ -t 15.000000000 -s 5 -d -1 -p cbr -e 512 -c 2 -a 0 -i 4 -k AGT 
- -t 15.000000000 -s 5 -d -1 -p cbr -e 512 -c 2 -a 0 -i 4 -k AGT
h -t 15.000000000 -s 5 -d -1 -p cbr -e 512 -c 2 -a 0 -i 4 -k AGT
+ -t 15.004671621 -s 5 -d -1 -p DSR -e 32 -c 2 -a 0 -i 5 -k RTR 
- -t 15.004671621 -s 5 -d -1 -p DSR -e 32 -c 2 -a 0 -i 5 -k RTR
h -t 15.004671621 -s 5 -d -1 -p DSR -e 32 -c 2 -a 0 -i 5 -k RTR
+ -t 15.007311047 -s 1 -d -1 -p DSR -e 32 -c 2 -a 0 -i 3 -k RTR 
- -t 15.007311047 -s 1 -d -1 -p DSR -e 32 -c 2 -a 0 -i 3 -k RTR
h -t 15.007311047 -s 1 -d -1 -p DSR -e 32 -c 2 -a 0 -i 3 -k RTR
+ -t 15.009232193 -s 0 -d -1 -p DSR -e 32 -c 2 -a 0 -i 1 -k RTR 
- -t 15.009232193 -s 0 -d -1 -p DSR -e 32 -c 2 -a 0 -i 1 -k RTR
h -t 15.009232193 -s 0 -d -1 -p DSR -e 32 -c 2 -a 0 -i 1 -k RTR
+ -t 15.044830677 -s 1 -d -1 -p DSR -e 32 -c 2 -a 0 -i 8 -k RTR 
- -t 15.044830677 -s 1 -d -1 -p DSR -e 32 -c 2 -a 0 -i 8 -k RTR
h -t 15.044830677 -s 1 -d -1 -p DSR -e 32 -c 2 -a 0 -i 8 -k RTR
+ -t 15.049132045 -s 2 -d -1 -p DSR -e 48 -c 2 -a 0 -i 8 -k RTR 
- -t 15.049132045 -s 2 -d -1 -p DSR -e 48 -c 2 -a 0 -i 8 -k RTR
h -t 15.049132045 -s 2 -d -1 -p DSR -e 48 -c 2 -a 0 -i 8 -k RTR
+ -t 15.050909702 -s 5 -d -1 -p DSR -e 48 -c 2 -a 0 -i 8 -k RTR 
- -t 15.050909702 -s 5 -d -1 -p DSR -e 48 -c 2 -a 0 -i 8 -k RTR
h -t 15.050909702 -s 5 -d -1 -p DSR -e 48 -c 2 -a 0 -i 8 -k RTR
+ -t 15.051692073 -s 0 -d -1 -p DSR -e 48 -c 2 -a 0 -i 8 -k RTR 
- -t 15.051692073 -s 0 -d -1 -p DSR -e 48 -c 2 -a 0 -i 8 -k RTR
h -t 15.051692073 -s 0 -d -1 -p DSR -e 48 -c 2 -a 0 -i 8 -k RTR
+ -t 15.052276738 -s 4 -d -1 -p DSR -e 48 -c 2 -a 0 -i 8 -k RTR 
- -t 15.052276738 -s 4 -d -1 -p DSR -e 48 -c 2 -a 0 -i 8 -k RTR
h -t 15.052276738 -s 4 -d -1 -p DSR -e 48 -c 2 -a 0 -i 8 -k RTR
+ -t 15.052901382 -s 12 -d -1 -p DSR -e 68 -c 2 -a 0 -i 8 -k RTR 
- -t 15.052901382 -s 12 -d -1 -p DSR -e 68 -c 2 -a 0 -i 8 -k RTR
h -t 15.052901382 -s 12 -d -1 -p DSR -e 68 -c 2 -a 0 -i 8 -k RTR
+ -t 15.053018383 -s 3 -d -1 -p DSR -e 48 -c 2 -a 0 -i 8 -k RTR 
- -t 15.053018383 -s 3 -d -1 -p DSR -e 48 -c 2 -a 0 -i 8 -k RTR
h -t 15.053018383 -s 3 -d -1 -p DSR -e 48 -c 2 -a 0 -i 8 -k RTR
+ -t 15.055587322 -s 7 -d -1 -p DSR -e 48 -c 2 -a 0 -i 8 -k RTR 
- -t 15.055587322 -s 7 -d -1 -p DSR -e 48 -c 2 -a 0 -i 8 -k RTR
h -t 15.055587322 -s 7 -d -1 -p DSR -e 48 -c 2 -a 0 -i 8 -k RTR
+ -t 15.059619109 -s 6 -d -1 -p DSR -e 68 -c 2 -a 0 -i 8 -k RTR 
- -t 15.059619109 -s 6 -d -1 -p DSR -e 68 -c 2 -a 0 -i 8 -k RTR
h -t 15.059619109 -s 6 -d -1 -p DSR -e 68 -c 2 -a 0 -i 8 -k RTR
+ -t 15.059773802 -s 8 -d -1 -p DSR -e 68 -c 2 -a 0 -i 8 -k RTR 
- -t 15.059773802 -s 8 -d -1 -p DSR -e 68 -c 2 -a 0 -i 8 -k RTR
h -t 15.059773802 -s 8 -d -1 -p DSR -e 68 -c 2 -a 0 -i 8 -k RTR
+ -t 15.062237291 -s 10 -d 12 -p DSR -e 60 -c 2 -a 0 -i 11 -k RTR 
- -t 15.062237291 -s 10 -d 12 -p DSR -e 60 -c 2 -a 0 -i 11 -k RTR
h -t 15.062237291 -s 10 -d 12 -p DSR -e 60 -c 2 -a 0 -i 11 -k RTR
+ -t 15.063123818 -s 13 -d -1 -p DSR -e 68 -c 2 -a 0 -i 8 -k RTR 
- -t 15.063123818 -s 13 -d -1 -p DSR -e 68 -c 2 -a 0 -i 8 -k RTR
h -t 15.063123818 -s 13 -d -1 -p DSR -e 68 -c 2 -a 0 -i 8 -k RTR
+ -t 15.063913234 -s 10 -d 7 -p DSR -e 52 -c 2 -a 0 -i 9 -k RTR 
- -t 15.063913234 -s 10 -d 7 -p DSR -e 52 -c 2 -a 0 -i 9 -k RTR
h -t 15.063913234 -s 10 -d 7 -p DSR -e 52 -c 2 -a 0 -i 9 -k RTR
+ -t 15.064923622 -s 12 -d 5 -p DSR -e 60 -c 2 -a 0 -i 11 -k RTR 
- -t 15.064923622 -s 12 -d 5 -p DSR -e 60 -c 2 -a 0 -i 11 -k RTR
h -t 15.064923622 -s 12 -d 5 -p DSR -e 60 -c 2 -a 0 -i 11 -k RTR
+ -t 15.066143243 -s 5 -d -1 -p DSR -e 32 -c 2 -a 0 -i 10 -k RTR 
- -t 15.066143243 -s 5 -d -1 -p DSR -e 32 -c 2 -a 0 -i 10 -k RTR
h -t 15.066143243 -s 5 -d -1 -p DSR -e 32 -c 2 -a 0 -i 10 -k RTR
+ -t 15.066986270 -s 9 -d -1 -p DSR -e 92 -c 2 -a 0 -i 8 -k RTR 
- -t 15.066986270 -s 9 -d -1 -p DSR -e 92 -c 2 -a 0 -i 8 -k RTR
h -t 15.066986270 -s 9 -d -1 -p DSR -e 92 -c 2 -a 0 -i 8 -k RTR
+ -t 15.067693807 -s 11 -d -1 -p DSR -e 92 -c 2 -a 0 -i 8 -k RTR 
- -t 15.067693807 -s 11 -d -1 -p DSR -e 92 -c 2 -a 0 -i 8 -k RTR
h -t 15.067693807 -s 11 -d -1 -p DSR -e 92 -c 2 -a 0 -i 8 -k RTR
+ -t 15.069035034 -s 7 -d 1 -p DSR -e 52 -c 2 -a 0 -i 9 -k RTR 
- -t 15.069035034 -s 7 -d 1 -p DSR -e 52 -c 2 -a 0 -i 9 -k RTR
h -t 15.069035034 -s 7 -d 1 -p DSR -e 52 -c 2 -a 0 -i 9 -k RTR
+ -t 15.071059267 -s 5 -d -1 -p cbr -e 512 -c 2 -a 0 -i 13 -k AGT 
- -t 15.071059267 -s 5 -d -1 -p cbr -e 512 -c 2 -a 0 -i 13 -k AGT
h -t 15.071059267 -s 5 -d -1 -p cbr -e 512 -c 2 -a 0 -i 13 -k AGT
+ -t 15.071269034 -s 1 -d 7 -p cbr -e 552 -c 2 -a 0 -i 2 -k RTR 
- -t 15.071269034 -s 1 -d 7 -p cbr -e 552 -c 2 -a 0 -i 2 -k RTR
h -t 15.071269034 -s 1 -d 7 -p cbr -e 552 -c 2 -a 0 -i 2 -k RTR
+ -t 15.074711792 -s 1 -d -1 -p DSR -e 48 -c 2 -a 0 -i 10 -k RTR 
- -t 15.074711792 -s 1 -d -1 -p DSR -e 48 -c 2 -a 0 -i 10 -k RTR
h -t 15.074711792 -s 1 -d -1 -p DSR -e 48 -c 2 -a 0 -i 10 -k RTR
+ -t 15.075282674 -s 10 -d 13 -p DSR -e 60 -c 2 -a 0 -i 12 -k RTR 
- -t 15.075282674 -s 10 -d 13 -p DSR -e 60 -c 2 -a 0 -i 12 -k RTR
h -t 15.075282674 -s 10 -d 13 -p DSR -e 60 -c 2 -a 0 -i 12 -k RTR
+ -t 15.075778770 -s 2 -d -1 -p DSR -e 48 -c 2 -a 0 -i 10 -k RTR 
- -t 15.075778770 -s 2 -d -1 -p DSR -e 48 -c 2 -a 0 -i 10 -k RTR
h -t 15.075778770 -s 2 -d -1 -p DSR -e 48 -c 2 -a 0 -i 10 -k RTR
+ -t 15.076443516 -s 7 -d -1 -p DSR -e 48 -c 2 -a 0 -i 10 -k RTR 
- -t 15.076443516 -s 7 -d -1 -p DSR -e 48 -c 2 -a 0 -i 10 -k RTR
h -t 15.076443516 -s 7 -d -1 -p DSR -e 48 -c 2 -a 0 -i 10 -k RTR
+ -t 15.076494544 -s 8 -d -1 -p DSR -e 48 -c 2 -a 0 -i 10 -k RTR 
- -t 15.076494544 -s 8 -d -1 -p DSR -e 48 -c 2 -a 0 -i 10 -k RTR
h -t 15.076494544 -s 8 -d -1 -p DSR -e 48 -c 2 -a 0 -i 10 -k RTR
+ -t 15.077582779 -s 12 -d -1 -p DSR -e 48 -c 2 -a 0 -i 10 -k RTR 
- -t 15.077582779 -s 12 -d -1 -p DSR -e 48 -c 2 -a 0 -i 10 -k RTR
h -t 15.077582779 -s 12 -d -1 -p DSR -e 48 -c 2 -a 0 -i 10 -k RTR
+ -t 15.078246524 -s 7 -d 10 -p cbr -e 552 -c 2 -a 0 -i 2 -k RTR 
- -t 15.078246524 -s 7 -d 10 -p cbr -e 552 -c 2 -a 0 -i 2 -k RTR
h -t 15.078246524 -s 7 -d 10 -p cbr -e 552 -c 2 -a 0 -i 2 -k RTR
+ -t 15.078360465 -s 0 -d 1 -p cbr -e 556 -c 2 -a 0 -i 0 -k RTR 
- -t 15.078360465 -s 0 -d 1 -p cbr -e 556 -c 2 -a 0 -i 0 -k RTR
h -t 15.078360465 -s 0 -d 1 -p cbr -e 556 -c 2 -a 0 -i 0 -k RTR
+ -t 15.078919647 -s 4 -d -1 -p DSR -e 48 -c 2 -a 0 -i 10 -k RTR 
- -t 15.078919647 -s 4 -d -1 -p DSR -e 48 -c 2 -a 0 -i 10 -k RTR
h -t 15.078919647 -s 4 -d -1 -p DSR -e 48 -c 2 -a 0 -i 10 -k RTR
+ -t 15.080254191 -s 13 -d 4 -p DSR -e 60 -c 2 -a 0 -i 12 -k RTR 
- -t 15.080254191 -s 13 -d 4 -p DSR -e 60 -c 2 -a 0 -i 12 -k RTR
h -t 15.080254191 -s 13 -d 4 -p DSR -e 60 -c 2 -a 0 -i 12 -k RTR
+ -t 15.082312191 -s 4 -d 1 -p DSR -e 60 -c 2 -a 0 -i 12 -k RTR 
- -t 15.082312191 -s 4 -d 1 -p DSR -e 60 -c 2 -a 0 -i 12 -k RTR
h -t 15.082312191 -s 4 -d 1 -p DSR -e 60 -c 2 -a 0 -i 12 -k RTR
+ -t 15.084692434 -s 6 -d 7 -p DSR -e 52 -c 2 -a 0 -i 15 -k RTR 
- -t 15.084692434 -s 6 -d 7 -p DSR -e 52 -c 2 -a 0 -i 15 -k RTR
h -t 15.084692434 -s 6 -d 7 -p DSR -e 52 -c 2 -a 0 -i 15 -k RTR
r -t 15.089317603 -s 10 -d 10 -p cbr -e 512 -c 2 -a 0 -i 2 -k AGT
+ -t 15.089427521 -s 13 -d -1 -p DSR -e 68 -c 2 -a 0 -i 10 -k RTR 
- -t 15.089427521 -s 13 -d -1 -p DSR -e 68 -c 2 -a 0 -i 10 -k RTR
h -t 15.089427521 -s 13 -d -1 -p DSR -e 68 -c 2 -a 0 -i 10 -k RTR
+ -t 15.091088048 -s 3 -d -1 -p DSR -e 68 -c 2 -a 0 -i 10 -k RTR 
- -t 15.091088048 -s 3 -d -1 -p DSR -e 68 -c 2 -a 0 -i 10 -k RTR
h -t 15.091088048 -s 3 -d -1 -p DSR -e 68 -c 2 -a 0 -i 10 -k RTR
+ -t 15.091356348 -s 5 -d 1 -p DSR -e 60 -c 2 -a 0 -i 11 -k RTR 
- -t 15.091356348 -s 5 -d 1 -p DSR -e 60 -c 2 -a 0 -i 11 -k RTR
h -t 15.091356348 -s 5 -d 1 -p DSR -e 60 -c 2 -a 0 -i 11 -k RTR
+ -t 15.094852488 -s 10 -d -1 -p DSR -e 68 -c 2 -a 0 -i 10 -k RTR 
- -t 15.094852488 -s 10 -d -1 -p DSR -e 68 -c 2 -a 0 -i 10 -k RTR
h -t 15.094852488 -s 10 -d -1 -p DSR -e 68 -c 2 -a 0 -i 10 -k RTR
+ -t 15.099045549 -s 0 -d -1 -p DSR -e 68 -c 2 -a 0 -i 10 -k RTR 
- -t 15.099045549 -s 0 -d -1 -p DSR -e 68 -c 2 -a 0 -i 10 -k RTR
h -t 15.099045549 -s 0 -d -1 -p DSR -e 68 -c 2 -a 0 -i 10 -k RTR
+ -t 15.099147762 -s 11 -d -1 -p DSR -e 68 -c 2 -a 0 -i 10 -k RTR 
- -t 15.099147762 -s 11 -d -1 -p DSR -e 68 -c 2 -a 0 -i 10 -k RTR
h -t 15.099147762 -s 11 -d -1 -p DSR -e 68 -c 2 -a 0 -i 10 -k RTR
+ -t 15.102622952 -s 6 -d 4 -p DSR -e 52 -c 2 -a 0 -i 18 -k RTR 
- -t 15.102622952 -s 6 -d 4 -p DSR -e 52 -c 2 -a 0 -i 18 -k RTR
h -t 15.102622952 -s 6 -d 4 -p DSR -e 52 -c 2 -a 0 -i 18 -k RTR
+ -t 15.103386849 -s 6 -d 13 -p DSR -e 60 -c 2 -a 0 -i 20 -k RTR 
- -t 15.103386849 -s 6 -d 13 -p DSR -e 60 -c 2 -a 0 -i 20 -k RTR
h -t 15.103386849 -s 6 -d 13 -p DSR -e 60 -c 2 -a 0 -i 20 -k RTR
+ -t 15.104048278 -s 6 -d 3 -p DSR -e 60 -c 2 -a 0 -i 19 -k RTR 
- -t 15.104048278 -s 6 -d 3 -p DSR -e 60 -c 2 -a 0 -i 19 -k RTR
h -t 15.104048278 -s 6 -d 3 -p DSR -e 60 -c 2 -a 0 -i 19 -k RTR
+ -t 15.108771101 -s 1 -d 7 -p cbr -e 556 -c 2 -a 0 -i 0 -k RTR 
- -t 15.108771101 -s 1 -d 7 -p cbr -e 556 -c 2 -a 0 -i 0 -k RTR
h -t 15.108771101 -s 1 -d 7 -p cbr -e 556 -c 2 -a 0 -i 0 -k RTR
+ -t 15.108892168 -s 10 -d 11 -p DSR -e 68 -c 2 -a 0 -i 21 -k RTR 
- -t 15.108892168 -s 10 -d 11 -p DSR -e 68 -c 2 -a 0 -i 21 -k RTR
h -t 15.108892168 -s 10 -d 11 -p DSR -e 68 -c 2 -a 0 -i 21 -k RTR
+ -t 15.110000270 -s 9 -d -1 -p DSR -e 92 -c 2 -a 0 -i 10 -k RTR 
- -t 15.110000270 -s 9 -d -1 -p DSR -e 92 -c 2 -a 0 -i 10 -k RTR
h -t 15.110000270 -s 9 -d -1 -p DSR -e 92 -c 2 -a 0 -i 10 -k RTR
+ -t 15.114844440 -s 6 -d 0 -p DSR -e 60 -c 2 -a 0 -i 22 -k RTR 
- -t 15.114844440 -s 6 -d 0 -p DSR -e 60 -c 2 -a 0 -i 22 -k RTR
h -t 15.114844440 -s 6 -d 0 -p DSR -e 60 -c 2 -a 0 -i 22 -k RTR
+ -t 15.118125768 -s 7 -d 10 -p cbr -e 556 -c 2 -a 0 -i 0 -k RTR 
- -t 15.118125768 -s 7 -d 10 -p cbr -e 556 -c 2 -a 0 -i 0 -k RTR
h -t 15.118125768 -s 7 -d 10 -p cbr -e 556 -c 2 -a 0 -i 0 -k RTR
r -t 15.124151768 -s 10 -d 10 -p cbr -e 512 -c 2 -a 0 -i 0 -k AGT
+ -t 15.128679101 -s 7 -d 5 -p DSR -e 52 -c 2 -a 0 -i 15 -k RTR 
- -t 15.128679101 -s 7 -d 5 -p DSR -e 52 -c 2 -a 0 -i 15 -k RTR
h -t 15.128679101 -s 7 -d 5 -p DSR -e 52 -c 2 -a 0 -i 15 -k RTR
+ -t 15.129806512 -s 0 -d -1 -p cbr -e 512 -c 2 -a 0 -i 24 -k AGT 
- -t 15.129806512 -s 0 -d -1 -p cbr -e 512 -c 2 -a 0 -i 24 -k AGT
h -t 15.129806512 -s 0 -d -1 -p cbr -e 512 -c 2 -a 0 -i 24 -k AGT
+ -t 15.129806512 -s 0 -d 1 -p cbr -e 556 -c 2 -a 0 -i 24 -k RTR 
- -t 15.129806512 -s 0 -d 1 -p cbr -e 556 -c 2 -a 0 -i 24 -k RTR
h -t 15.129806512 -s 0 -d 1 -p cbr -e 556 -c 2 -a 0 -i 24 -k RTR
+ -t 15.130773337 -s 5 -d 7 -p cbr -e 552 -c 2 -a 0 -i 4 -k RTR 
- -t 15.130773337 -s 5 -d 7 -p cbr -e 552 -c 2 -a 0 -i 4 -k RTR
h -t 15.130773337 -s 5 -d 7 -p cbr -e 552 -c 2 -a 0 -i 4 -k RTR
+ -t 15.132206811 -s 6 -d 9 -p DSR -e 68 -c 2 -a 0 -i 23 -k RTR 
- -t 15.132206811 -s 6 -d 9 -p DSR -e 68 -c 2 -a 0 -i 23 -k RTR
h -t 15.132206811 -s 6 -d 9 -p DSR -e 68 -c 2 -a 0 -i 23 -k RTR
+ -t 15.135253159 -s 1 -d -1 -p cbr -e 512 -c 2 -a 0 -i 25 -k AGT 
- -t 15.135253159 -s 1 -d -1 -p cbr -e 512 -c 2 -a 0 -i 25 -k AGT
h -t 15.135253159 -s 1 -d -1 -p cbr -e 512 -c 2 -a 0 -i 25 -k AGT
+ -t 15.135253159 -s 1 -d 7 -p cbr -e 552 -c 2 -a 0 -i 25 -k RTR 
- -t 15.135253159 -s 1 -d 7 -p cbr -e 552 -c 2 -a 0 -i 25 -k RTR
h -t 15.135253159 -s 1 -d 7 -p cbr -e 552 -c 2 -a 0 -i 25 -k RTR
+ -t 15.136787573 -s 7 -d 6 -p cbr -e 552 -c 2 -a 0 -i 4 -k RTR 
- -t 15.136787573 -s 7 -d 6 -p cbr -e 552 -c 2 -a 0 -i 4 -k RTR
h -t 15.136787573 -s 7 -d 6 -p cbr -e 552 -c 2 -a 0 -i 4 -k RTR
+ -t 15.140508769 -s 5 -d -1 -p cbr -e 512 -c 2 -a 0 -i 26 -k AGT 
- -t 15.140508769 -s 5 -d -1 -p cbr -e 512 -c 2 -a 0 -i 26 -k AGT
h -t 15.140508769 -s 5 -d -1 -p cbr -e 512 -c 2 -a 0 -i 26 -k AGT
+ -t 15.140508769 -s 5 -d 7 -p cbr -e 552 -c 2 -a 0 -i 26 -k RTR 
- -t 15.140508769 -s 5 -d 7 -p cbr -e 552 -c 2 -a 0 -i 26 -k RTR
h -t 15.140508769 -s 5 -d 7 -p cbr -e 552 -c 2 -a 0 -i 26 -k RTR
r -t 15.142761573 -s 6 -d 6 -p cbr -e 512 -c 2 -a 0 -i 4 -k AGT
+ -t 15.148757849 -s 1 -d 7 -p cbr -e 556 -c 2 -a 0 -i 24 -k RTR 
- -t 15.148757849 -s 1 -d 7 -p cbr -e 556 -c 2 -a 0 -i 24 -k RTR
h -t 15.148757849 -s 1 -d 7 -p cbr -e 556 -c 2 -a 0 -i 24 -k RTR
+ -t 15.155011849 -s 7 -d 10 -p cbr -e 552 -c 2 -a 0 -i 25 -k RTR 
- -t 15.155011849 -s 7 -d 10 -p cbr -e 552 -c 2 -a 0 -i 25 -k RTR
h -t 15.155011849 -s 7 -d 10 -p cbr -e 552 -c 2 -a 0 -i 25 -k RTR
+ -t 15.160773337 -s 5 -d 7 -p cbr -e 552 -c 2 -a 0 -i 13 -k RTR 
- -t 15.160773337 -s 5 -d 7 -p cbr -e 552 -c 2 -a 0 -i 13 -k RTR
h -t 15.160773337 -s 5 -d 7 -p cbr -e 552 -c 2 -a 0 -i 13 -k RTR
+ -t 15.160958516 -s 7 -d 10 -p cbr -e 556 -c 2 -a 0 -i 24 -k RTR 
- -t 15.160958516 -s 7 -d 10 -p cbr -e 556 -c 2 -a 0 -i 24 -k RTR
h -t 15.160958516 -s 7 -d 10 -p cbr -e 556 -c 2 -a 0 -i 24 -k RTR
+ -t 15.163046792 -s 0 -d 4 -p DSR -e 60 -c 2 -a 0 -i 22 -k RTR 
- -t 15.163046792 -s 0 -d 4 -p DSR -e 60 -c 2 -a 0 -i 22 -k RTR
h -t 15.163046792 -s 0 -d 4 -p DSR -e 60 -c 2 -a 0 -i 22 -k RTR
+ -t 15.165165028 -s 4 -d 5 -p DSR -e 60 -c 2 -a 0 -i 22 -k RTR 
- -t 15.165165028 -s 4 -d 5 -p DSR -e 60 -c 2 -a 0 -i 22 -k RTR
h -t 15.165165028 -s 4 -d 5 -p DSR -e 60 -c 2 -a 0 -i 22 -k RTR
+ -t 15.168064859 -s 11 -d 12 -p DSR -e 68 -c 2 -a 0 -i 21 -k RTR 
- -t 15.168064859 -s 11 -d 12 -p DSR -e 68 -c 2 -a 0 -i 21 -k RTR
h -t 15.168064859 -s 11 -d 12 -p DSR -e 68 -c 2 -a 0 -i 21 -k RTR
+ -t 15.170245859 -s 12 -d 5 -p DSR -e 68 -c 2 -a 0 -i 21 -k RTR 
- -t 15.170245859 -s 12 -d 5 -p DSR -e 68 -c 2 -a 0 -i 21 -k RTR
h -t 15.170245859 -s 12 -d 5 -p DSR -e 68 -c 2 -a 0 -i 21 -k RTR
r -t 15.176450469 -s 10 -d 10 -p cbr -e 512 -c 2 -a 0 -i 25 -k AGT
+ -t 15.178593214 -s 5 -d 1 -p DSR -e 68 -c 2 -a 0 -i 21 -k RTR 
- -t 15.178593214 -s 5 -d 1 -p DSR -e 68 -c 2 -a 0 -i 21 -k RTR
h -t 15.178593214 -s 5 -d 1 -p DSR -e 68 -c 2 -a 0 -i 21 -k RTR
r -t 15.186848235 -s 10 -d 10 -p cbr -e 512 -c 2 -a 0 -i 24 -k AGT
+ -t 15.189355178 -s 9 -d 13 -p DSR -e 68 -c 2 -a 0 -i 23 -k RTR 
- -t 15.189355178 -s 9 -d 13 -p DSR -e 68 -c 2 -a 0 -i 23 -k RTR
h -t 15.189355178 -s 9 -d 13 -p DSR -e 68 -c 2 -a 0 -i 23 -k RTR
+ -t 15.191477414 -s 13 -d 7 -p DSR -e 68 -c 2 -a 0 -i 23 -k RTR 
- -t 15.191477414 -s 13 -d 7 -p DSR -e 68 -c 2 -a 0 -i 23 -k RTR
h -t 15.191477414 -s 13 -d 7 -p DSR -e 68 -c 2 -a 0 -i 23 -k RTR
+ -t 15.193478414 -s 7 -d 5 -p DSR -e 68 -c 2 -a 0 -i 23 -k RTR 
- -t 15.193478414 -s 7 -d 5 -p DSR -e 68 -c 2 -a 0 -i 23 -k RTR
h -t 15.193478414 -s 7 -d 5 -p DSR -e 68 -c 2 -a 0 -i 23 -k RTR
+ -t 15.197983025 -s 3 -d 7 -p DSR -e 60 -c 2 -a 0 -i 19 -k RTR 
- -t 15.197983025 -s 3 -d 7 -p DSR -e 60 -c 2 -a 0 -i 19 -k RTR
h -t 15.197983025 -s 3 -d 7 -p DSR -e 60 -c 2 -a 0 -i 19 -k RTR
+ -t 15.200081261 -s 7 -d 5 -p DSR -e 60 -c 2 -a 0 -i 19 -k RTR 
- -t 15.200081261 -s 7 -d 5 -p DSR -e 60 -c 2 -a 0 -i 19 -k RTR
h -t 15.200081261 -s 7 -d 5 -p DSR -e 60 -c 2 -a 0 -i 19 -k RTR
+ -t 15.206026085 -s 7 -d 6 -p cbr -e 552 -c 2 -a 0 -i 26 -k RTR 
- -t 15.206026085 -s 7 -d 6 -p cbr -e 552 -c 2 -a 0 -i 26 -k RTR
h -t 15.206026085 -s 7 -d 6 -p cbr -e 552 -c 2 -a 0 -i 26 -k RTR
+ -t 15.208114950 -s 13 -d 7 -p DSR -e 60 -c 2 -a 0 -i 20 -k RTR 
- -t 15.208114950 -s 13 -d 7 -p DSR -e 60 -c 2 -a 0 -i 20 -k RTR
h -t 15.208114950 -s 13 -d 7 -p DSR -e 60 -c 2 -a 0 -i 20 -k RTR
+ -t 15.210131950 -s 7 -d 5 -p DSR -e 60 -c 2 -a 0 -i 20 -k RTR 
- -t 15.210131950 -s 7 -d 5 -p DSR -e 60 -c 2 -a 0 -i 20 -k RTR
h -t 15.210131950 -s 7 -d 5 -p DSR -e 60 -c 2 -a 0 -i 20 -k RTR
+ -t 15.215246327 -s 0 -d -1 -p cbr -e 512 -c 2 -a 0 -i 27 -k AGT 
- -t 15.215246327 -s 0 -d -1 -p cbr -e 512 -c 2 -a 0 -i 27 -k AGT
h -t 15.215246327 -s 0 -d -1 -p cbr -e 512 -c 2 -a 0 -i 27 -k AGT
+ -t 15.215246327 -s 0 -d 1 -p cbr -e 556 -c 2 -a 0 -i 27 -k RTR 
- -t 15.215246327 -s 0 -d 1 -p cbr -e 556 -c 2 -a 0 -i 27 -k RTR
h -t 15.215246327 -s 0 -d 1 -p cbr -e 556 -c 2 -a 0 -i 27 -k RTR
r -t 15.220283913 -s 6 -d 6 -p cbr -e 512 -c 2 -a 0 -i 26 -k AGT
+ -t 15.222358149 -s 4 -d 5 -p DSR -e 52 -c 2 -a 0 -i 18 -k RTR 
- -t 15.222358149 -s 4 -d 5 -p DSR -e 52 -c 2 -a 0 -i 18 -k RTR
h -t 15.222358149 -s 4 -d 5 -p DSR -e 52 -c 2 -a 0 -i 18 -k RTR
+ -t 15.232459583 -s 7 -d 6 -p cbr -e 552 -c 2 -a 0 -i 13 -k RTR 
- -t 15.232459583 -s 7 -d 6 -p cbr -e 552 -c 2 -a 0 -i 13 -k RTR
h -t 15.232459583 -s 7 -d 6 -p cbr -e 552 -c 2 -a 0 -i 13 -k RTR
r -t 15.238793583 -s 6 -d 6 -p cbr -e 512 -c 2 -a 0 -i 13 -k AGT
+ -t 15.243246756 -s 5 -d -1 -p cbr -e 512 -c 2 -a 0 -i 28 -k AGT 
- -t 15.243246756 -s 5 -d -1 -p cbr -e 512 -c 2 -a 0 -i 28 -k AGT
h -t 15.243246756 -s 5 -d -1 -p cbr -e 512 -c 2 -a 0 -i 28 -k AGT
+ -t 15.243246756 -s 5 -d 7 -p cbr -e 532 -c 2 -a 0 -i 28 -k RTR 
- -t 15.243246756 -s 5 -d 7 -p cbr -e 532 -c 2 -a 0 -i 28 -k RTR
h -t 15.243246756 -s 5 -d 7 -p cbr -e 532 -c 2 -a 0 -i 28 -k RTR
+ -t 15.244809859 -s 1 -d 7 -p cbr -e 556 -c 2 -a 0 -i 27 -k RTR 
- -t 15.244809859 -s 1 -d 7 -p cbr -e 556 -c 2 -a 0 -i 27 -k RTR
h -t 15.244809859 -s 1 -d 7 -p cbr -e 556 -c 2 -a 0 -i 27 -k RTR
+ -t 15.250715859 -s 7 -d 10 -p cbr -e 556 -c 2 -a 0 -i 27 -k RTR 
- -t 15.250715859 -s 7 -d 10 -p cbr -e 556 -c 2 -a 0 -i 27 -k RTR
h -t 15.250715859 -s 7 -d 10 -p cbr -e 556 -c 2 -a 0 -i 27 -k RTR
+ -t 15.252422240 -s 1 -d -1 -p cbr -e 512 -c 2 -a 0 -i 29 -k AGT 
- -t 15.252422240 -s 1 -d -1 -p cbr -e 512 -c 2 -a 0 -i 29 -k AGT
h -t 15.252422240 -s 1 -d -1 -p cbr -e 512 -c 2 -a 0 -i 29 -k AGT
+ -t 15.252422240 -s 1 -d 7 -p cbr -e 552 -c 2 -a 0 -i 29 -k RTR 
- -t 15.252422240 -s 1 -d 7 -p cbr -e 552 -c 2 -a 0 -i 29 -k RTR
h -t 15.252422240 -s 1 -d 7 -p cbr -e 552 -c 2 -a 0 -i 29 -k RTR
+ -t 15.256550841 -s 7 -d 6 -p cbr -e 532 -c 2 -a 0 -i 28 -k RTR 
- -t 15.256550841 -s 7 -d 6 -p cbr -e 532 -c 2 -a 0 -i 28 -k RTR
h -t 15.256550841 -s 7 -d 6 -p cbr -e 532 -c 2 -a 0 -i 28 -k RTR
+ -t 15.262725508 -s 7 -d 10 -p cbr -e 552 -c 2 -a 0 -i 29 -k RTR 
- -t 15.262725508 -s 7 -d 10 -p cbr -e 552 -c 2 -a 0 -i 29 -k RTR
h -t 15.262725508 -s 7 -d 10 -p cbr -e 552 -c 2 -a 0 -i 29 -k RTR
r -t 15.268711508 -s 10 -d 10 -p cbr -e 512 -c 2 -a 0 -i 27 -k AGT
r -t 15.274666174 -s 6 -d 6 -p cbr -e 512 -c 2 -a 0 -i 28 -k AGT
+ -t 15.280782933 -s 0 -d -1 -p cbr -e 512 -c 2 -a 0 -i 30 -k AGT 
- -t 15.280782933 -s 0 -d -1 -p cbr -e 512 -c 2 -a 0 -i 30 -k AGT
h -t 15.280782933 -s 0 -d -1 -p cbr -e 512 -c 2 -a 0 -i 30 -k AGT
+ -t 15.280782933 -s 0 -d 1 -p cbr -e 532 -c 2 -a 0 -i 30 -k RTR 
- -t 15.280782933 -s 0 -d 1 -p cbr -e 532 -c 2 -a 0 -i 30 -k RTR
h -t 15.280782933 -s 0 -d 1 -p cbr -e 532 -c 2 -a 0 -i 30 -k RTR
r -t 15.280800841 -s 10 -d 10 -p cbr -e 512 -c 2 -a 0 -i 29 -k AGT
+ -t 15.287140332 -s 1 -d 7 -p cbr -e 532 -c 2 -a 0 -i 30 -k RTR 
- -t 15.287140332 -s 1 -d 7 -p cbr -e 532 -c 2 -a 0 -i 30 -k RTR
h -t 15.287140332 -s 1 -d 7 -p cbr -e 532 -c 2 -a 0 -i 30 -k RTR
+ -t 15.293214332 -s 7 -d 10 -p cbr -e 532 -c 2 -a 0 -i 30 -k RTR 
- -t 15.293214332 -s 7 -d 10 -p cbr -e 532 -c 2 -a 0 -i 30 -k RTR
h -t 15.293214332 -s 7 -d 10 -p cbr -e 532 -c 2 -a 0 -i 30 -k RTR
r -t 15.299488332 -s 10 -d 10 -p cbr -e 512 -c 2 -a 0 -i 30 -k AGT
+ -t 15.343032503 -s 5 -d -1 -p cbr -e 512 -c 2 -a 0 -i 31 -k AGT 
- -t 15.343032503 -s 5 -d -1 -p cbr -e 512 -c 2 -a 0 -i 31 -k AGT
h -t 15.343032503 -s 5 -d -1 -p cbr -e 512 -c 2 -a 0 -i 31 -k AGT
+ -t 15.343032503 -s 5 -d 7 -p cbr -e 532 -c 2 -a 0 -i 31 -k RTR 
- -t 15.343032503 -s 5 -d 7 -p cbr -e 532 -c 2 -a 0 -i 31 -k RTR
h -t 15.343032503 -s 5 -d 7 -p cbr -e 532 -c 2 -a 0 -i 31 -k RTR
+ -t 15.347990960 -s 1 -d -1 -p cbr -e 512 -c 2 -a 0 -i 32 -k AGT 
- -t 15.347990960 -s 1 -d -1 -p cbr -e 512 -c 2 -a 0 -i 32 -k AGT
h -t 15.347990960 -s 1 -d -1 -p cbr -e 512 -c 2 -a 0 -i 32 -k AGT
+ -t 15.347990960 -s 1 -d 7 -p cbr -e 532 -c 2 -a 0 -i 32 -k RTR 
- -t 15.347990960 -s 1 -d 7 -p cbr -e 532 -c 2 -a 0 -i 32 -k RTR
h -t 15.347990960 -s 1 -d 7 -p cbr -e 532 -c 2 -a 0 -i 32 -k RTR
+ -t 15.348962739 -s 7 -d 6 -p cbr -e 532 -c 2 -a 0 -i 31 -k RTR 
- -t 15.348962739 -s 7 -d 6 -p cbr -e 532 -c 2 -a 0 -i 31 -k RTR
h -t 15.348962739 -s 7 -d 6 -p cbr -e 532 -c 2 -a 0 -i 31 -k RTR
r -t 15.354696739 -s 6 -d 6 -p cbr -e 512 -c 2 -a 0 -i 31 -k AGT
+ -t 15.357434352 -s 0 -d -1 -p cbr -e 512 -c 2 -a 0 -i 33 -k AGT 
- -t 15.357434352 -s 0 -d -1 -p cbr -e 512 -c 2 -a 0 -i 33 -k AGT
h -t 15.357434352 -s 0 -d -1 -p cbr -e 512 -c 2 -a 0 -i 33 -k AGT
+ -t 15.357434352 -s 0 -d 1 -p cbr -e 532 -c 2 -a 0 -i 33 -k RTR 
- -t 15.357434352 -s 0 -d 1 -p cbr -e 532 -c 2 -a 0 -i 33 -k RTR
h -t 15.357434352 -s 0 -d 1 -p cbr -e 532 -c 2 -a 0 -i 33 -k RTR
+ -t 15.361035682 -s 7 -d 10 -p cbr -e 532 -c 2 -a 0 -i 32 -k RTR 
- -t 15.361035682 -s 7 -d 10 -p cbr -e 532 -c 2 -a 0 -i 32 -k RTR
h -t 15.361035682 -s 7 -d 10 -p cbr -e 532 -c 2 -a 0 -i 32 -k RTR
r -t 15.367189682 -s 10 -d 10 -p cbr -e 512 -c 2 -a 0 -i 32 -k AGT
+ -t 15.373489172 -s 1 -d 7 -p cbr -e 532 -c 2 -a 0 -i 33 -k RTR 
- -t 15.373489172 -s 1 -d 7 -p cbr -e 532 -c 2 -a 0 -i 33 -k RTR
h -t 15.373489172 -s 1 -d 7 -p cbr -e 532 -c 2 -a 0 -i 33 -k RTR
+ -t 15.379503172 -s 7 -d 10 -p cbr -e 532 -c 2 -a 0 -i 33 -k RTR 
- -t 15.379503172 -s 7 -d 10 -p cbr -e 532 -c 2 -a 0 -i 33 -k RTR
h -t 15.379503172 -s 7 -d 10 -p cbr -e 532 -c 2 -a 0 -i 33 -k RTR
r -t 15.385737172 -s 10 -d 10 -p cbr -e 512 -c 2 -a 0 -i 33 -k AGT
+ -t 15.421832750 -s 5 -d -1 -p cbr -e 512 -c 2 -a 0 -i 34 -k AGT 
- -t 15.421832750 -s 5 -d -1 -p cbr -e 512 -c 2 -a 0 -i 34 -k AGT
h -t 15.421832750 -s 5 -d -1 -p cbr -e 512 -c 2 -a 0 -i 34 -k AGT
+ -t 15.421832750 -s 5 -d 7 -p cbr -e 532 -c 2 -a 0 -i 34 -k RTR 
- -t 15.421832750 -s 5 -d 7 -p cbr -e 532 -c 2 -a 0 -i 34 -k RTR
h -t 15.421832750 -s 5 -d 7 -p cbr -e 532 -c 2 -a 0 -i 34 -k RTR
+ -t 15.427342986 -s 7 -d 6 -p cbr -e 532 -c 2 -a 0 -i 34 -k RTR 
- -t 15.427342986 -s 7 -d 6 -p cbr -e 532 -c 2 -a 0 -i 34 -k RTR
h -t 15.427342986 -s 7 -d 6 -p cbr -e 532 -c 2 -a 0 -i 34 -k RTR
r -t 15.433416986 -s 6 -d 6 -p cbr -e 512 -c 2 -a 0 -i 34 -k AGT
+ -t 15.463210349 -s 0 -d -1 -p cbr -e 512 -c 2 -a 0 -i 35 -k AGT 
- -t 15.463210349 -s 0 -d -1 -p cbr -e 512 -c 2 -a 0 -i 35 -k AGT
h -t 15.463210349 -s 0 -d -1 -p cbr -e 512 -c 2 -a 0 -i 35 -k AGT
+ -t 15.463210349 -s 0 -d 1 -p cbr -e 532 -c 2 -a 0 -i 35 -k RTR 
- -t 15.463210349 -s 0 -d 1 -p cbr -e 532 -c 2 -a 0 -i 35 -k RTR
h -t 15.463210349 -s 0 -d 1 -p cbr -e 532 -c 2 -a 0 -i 35 -k RTR
+ -t 15.469060349 -s 1 -d 7 -p cbr -e 532 -c 2 -a 0 -i 35 -k RTR 
- -t 15.469060349 -s 1 -d 7 -p cbr -e 532 -c 2 -a 0 -i 35 -k RTR
h -t 15.469060349 -s 1 -d 7 -p cbr -e 532 -c 2 -a 0 -i 35 -k RTR
+ -t 15.472320520 -s 1 -d -1 -p cbr -e 512 -c 2 -a 0 -i 36 -k AGT 
- -t 15.472320520 -s 1 -d -1 -p cbr -e 512 -c 2 -a 0 -i 36 -k AGT
h -t 15.472320520 -s 1 -d -1 -p cbr -e 512 -c 2 -a 0 -i 36 -k AGT
+ -t 15.472320520 -s 1 -d 7 -p cbr -e 532 -c 2 -a 0 -i 36 -k RTR 
- -t 15.472320520 -s 1 -d 7 -p cbr -e 532 -c 2 -a 0 -i 36 -k RTR
h -t 15.472320520 -s 1 -d 7 -p cbr -e 532 -c 2 -a 0 -i 36 -k RTR
+ -t 15.474894349 -s 7 -d 10 -p cbr -e 532 -c 2 -a 0 -i 35 -k RTR 
- -t 15.474894349 -s 7 -d 10 -p cbr -e 532 -c 2 -a 0 -i 35 -k RTR
h -t 15.474894349 -s 7 -d 10 -p cbr -e 532 -c 2 -a 0 -i 35 -k RTR
r -t 15.481008349 -s 10 -d 10 -p cbr -e 512 -c 2 -a 0 -i 35 -k AGT
+ -t 15.487207682 -s 7 -d 10 -p cbr -e 532 -c 2 -a 0 -i 36 -k RTR 
- -t 15.487207682 -s 7 -d 10 -p cbr -e 532 -c 2 -a 0 -i 36 -k RTR
h -t 15.487207682 -s 7 -d 10 -p cbr -e 532 -c 2 -a 0 -i 36 -k RTR
r -t 15.493001682 -s 10 -d 10 -p cbr -e 512 -c 2 -a 0 -i 36 -k AGT
+ -t 15.519394889 -s 5 -d -1 -p cbr -e 512 -c 2 -a 0 -i 37 -k AGT 
- -t 15.519394889 -s 5 -d -1 -p cbr -e 512 -c 2 -a 0 -i 37 -k AGT
h -t 15.519394889 -s 5 -d -1 -p cbr -e 512 -c 2 -a 0 -i 37 -k AGT
+ -t 15.519394889 -s 5 -d 7 -p cbr -e 532 -c 2 -a 0 -i 37 -k RTR 
- -t 15.519394889 -s 5 -d 7 -p cbr -e 532 -c 2 -a 0 -i 37 -k RTR
h -t 15.519394889 -s 5 -d 7 -p cbr -e 532 -c 2 -a 0 -i 37 -k RTR
+ -t 15.525005125 -s 7 -d 6 -p cbr -e 532 -c 2 -a 0 -i 37 -k RTR 
- -t 15.525005125 -s 7 -d 6 -p cbr -e 532 -c 2 -a 0 -i 37 -k RTR
h -t 15.525005125 -s 7 -d 6 -p cbr -e 532 -c 2 -a 0 -i 37 -k RTR
r -t 15.530899125 -s 6 -d 6 -p cbr -e 512 -c 2 -a 0 -i 37 -k AGT
+ -t 15.584278911 -s 0 -d -1 -p cbr -e 512 -c 2 -a 0 -i 38 -k AGT 
- -t 15.584278911 -s 0 -d -1 -p cbr -e 512 -c 2 -a 0 -i 38 -k AGT
h -t 15.584278911 -s 0 -d -1 -p cbr -e 512 -c 2 -a 0 -i 38 -k AGT
+ -t 15.584278911 -s 0 -d 1 -p cbr -e 532 -c 2 -a 0 -i 38 -k RTR 
- -t 15.584278911 -s 0 -d 1 -p cbr -e 532 -c 2 -a 0 -i 38 -k RTR
h -t 15.584278911 -s 0 -d 1 -p cbr -e 532 -c 2 -a 0 -i 38 -k RTR
+ -t 15.589728911 -s 1 -d 7 -p cbr -e 532 -c 2 -a 0 -i 38 -k RTR 
- -t 15.589728911 -s 1 -d 7 -p cbr -e 532 -c 2 -a 0 -i 38 -k RTR
h -t 15.589728911 -s 1 -d 7 -p cbr -e 532 -c 2 -a 0 -i 38 -k RTR
+ -t 15.595742911 -s 7 -d 10 -p cbr -e 532 -c 2 -a 0 -i 38 -k RTR 
- -t 15.595742911 -s 7 -d 10 -p cbr -e 532 -c 2 -a 0 -i 38 -k RTR
h -t 15.595742911 -s 7 -d 10 -p cbr -e 532 -c 2 -a 0 -i 38 -k RTR
r -t 15.601776911 -s 10 -d 10 -p cbr -e 512 -c 2 -a 0 -i 38 -k AGT
+ -t 15.620398410 -s 1 -d -1 -p cbr -e 512 -c 2 -a 0 -i 39 -k AGT 
- -t 15.620398410 -s 1 -d -1 -p cbr -e 512 -c 2 -a 0 -i 39 -k AGT
h -t 15.620398410 -s 1 -d -1 -p cbr -e 512 -c 2 -a 0 -i 39 -k AGT
+ -t 15.620398410 -s 1 -d 7 -p cbr -e 532 -c 2 -a 0 -i 39 -k RTR 
- -t 15.620398410 -s 1 -d 7 -p cbr -e 532 -c 2 -a 0 -i 39 -k RTR
h -t 15.620398410 -s 1 -d 7 -p cbr -e 532 -c 2 -a 0 -i 39 -k RTR
+ -t 15.626248410 -s 7 -d 10 -p cbr -e 532 -c 2 -a 0 -i 39 -k RTR 
- -t 15.626248410 -s 7 -d 10 -p cbr -e 532 -c 2 -a 0 -i 39 -k RTR
h -t 15.626248410 -s 7 -d 10 -p cbr -e 532 -c 2 -a 0 -i 39 -k RTR
+ -t 15.626356946 -s 5 -d -1 -p cbr -e 512 -c 2 -a 0 -i 40 -k AGT 
- -t 15.626356946 -s 5 -d -1 -p cbr -e 512 -c 2 -a 0 -i 40 -k AGT
h -t 15.626356946 -s 5 -d -1 -p cbr -e 512 -c 2 -a 0 -i 40 -k AGT
+ -t 15.626356946 -s 5 -d 7 -p cbr -e 532 -c 2 -a 0 -i 40 -k RTR 
- -t 15.626356946 -s 5 -d 7 -p cbr -e 532 -c 2 -a 0 -i 40 -k RTR
h -t 15.626356946 -s 5 -d 7 -p cbr -e 532 -c 2 -a 0 -i 40 -k RTR
r -t 15.632142410 -s 10 -d 10 -p cbr -e 512 -c 2 -a 0 -i 39 -k AGT
+ -t 15.638641847 -s 7 -d 6 -p cbr -e 532 -c 2 -a 0 -i 40 -k RTR 
- -t 15.638641847 -s 7 -d 6 -p cbr -e 532 -c 2 -a 0 -i 40 -k RTR
h -t 15.638641847 -s 7 -d 6 -p cbr -e 532 -c 2 -a 0 -i 40 -k RTR
r -t 15.644715847 -s 6 -d 6 -p cbr -e 512 -c 2 -a 0 -i 40 -k AGT
+ -t 15.672534875 -s 0 -d -1 -p cbr -e 512 -c 2 -a 0 -i 41 -k AGT 
- -t 15.672534875 -s 0 -d -1 -p cbr -e 512 -c 2 -a 0 -i 41 -k AGT
h -t 15.672534875 -s 0 -d -1 -p cbr -e 512 -c 2 -a 0 -i 41 -k AGT
+ -t 15.672534875 -s 0 -d 1 -p cbr -e 532 -c 2 -a 0 -i 41 -k RTR 
- -t 15.672534875 -s 0 -d 1 -p cbr -e 532 -c 2 -a 0 -i 41 -k RTR
h -t 15.672534875 -s 0 -d 1 -p cbr -e 532 -c 2 -a 0 -i 41 -k RTR
+ -t 15.678084875 -s 1 -d 7 -p cbr -e 532 -c 2 -a 0 -i 41 -k RTR 
- -t 15.678084875 -s 1 -d 7 -p cbr -e 532 -c 2 -a 0 -i 41 -k RTR
h -t 15.678084875 -s 1 -d 7 -p cbr -e 532 -c 2 -a 0 -i 41 -k RTR
+ -t 15.683818875 -s 7 -d 10 -p cbr -e 532 -c 2 -a 0 -i 41 -k RTR 
- -t 15.683818875 -s 7 -d 10 -p cbr -e 532 -c 2 -a 0 -i 41 -k RTR
h -t 15.683818875 -s 7 -d 10 -p cbr -e 532 -c 2 -a 0 -i 41 -k RTR
r -t 15.690092875 -s 10 -d 10 -p cbr -e 512 -c 2 -a 0 -i 41 -k AGT
+ -t 15.722662604 -s 1 -d -1 -p cbr -e 512 -c 2 -a 0 -i 42 -k AGT 
- -t 15.722662604 -s 1 -d -1 -p cbr -e 512 -c 2 -a 0 -i 42 -k AGT
h -t 15.722662604 -s 1 -d -1 -p cbr -e 512 -c 2 -a 0 -i 42 -k AGT
+ -t 15.722662604 -s 1 -d 7 -p cbr -e 532 -c 2 -a 0 -i 42 -k RTR 
- -t 15.722662604 -s 1 -d 7 -p cbr -e 532 -c 2 -a 0 -i 42 -k RTR
h -t 15.722662604 -s 1 -d 7 -p cbr -e 532 -c 2 -a 0 -i 42 -k RTR
+ -t 15.728432604 -s 7 -d 10 -p cbr -e 532 -c 2 -a 0 -i 42 -k RTR 
- -t 15.728432604 -s 7 -d 10 -p cbr -e 532 -c 2 -a 0 -i 42 -k RTR
h -t 15.728432604 -s 7 -d 10 -p cbr -e 532 -c 2 -a 0 -i 42 -k RTR
r -t 15.734326604 -s 10 -d 10 -p cbr -e 512 -c 2 -a 0 -i 42 -k AGT
+ -t 15.744892806 -s 5 -d -1 -p cbr -e 512 -c 2 -a 0 -i 43 -k AGT 
- -t 15.744892806 -s 5 -d -1 -p cbr -e 512 -c 2 -a 0 -i 43 -k AGT
h -t 15.744892806 -s 5 -d -1 -p cbr -e 512 -c 2 -a 0 -i 43 -k AGT
+ -t 15.744892806 -s 5 -d 7 -p cbr -e 532 -c 2 -a 0 -i 43 -k RTR 
- -t 15.744892806 -s 5 -d 7 -p cbr -e 532 -c 2 -a 0 -i 43 -k RTR
h -t 15.744892806 -s 5 -d 7 -p cbr -e 532 -c 2 -a 0 -i 43 -k RTR
+ -t 15.750643042 -s 7 -d 6 -p cbr -e 532 -c 2 -a 0 -i 43 -k RTR 
- -t 15.750643042 -s 7 -d 6 -p cbr -e 532 -c 2 -a 0 -i 43 -k RTR
h -t 15.750643042 -s 7 -d 6 -p cbr -e 532 -c 2 -a 0 -i 43 -k RTR
r -t 15.756457042 -s 6 -d 6 -p cbr -e 512 -c 2 -a 0 -i 43 -k AGT
+ -t 15.788386936 -s 0 -d -1 -p cbr -e 512 -c 2 -a 0 -i 44 -k AGT 
- -t 15.788386936 -s 0 -d -1 -p cbr -e 512 -c 2 -a 0 -i 44 -k AGT
h -t 15.788386936 -s 0 -d -1 -p cbr -e 512 -c 2 -a 0 -i 44 -k AGT
+ -t 15.788386936 -s 0 -d 1 -p cbr -e 532 -c 2 -a 0 -i 44 -k RTR 
- -t 15.788386936 -s 0 -d 1 -p cbr -e 532 -c 2 -a 0 -i 44 -k RTR
h -t 15.788386936 -s 0 -d 1 -p cbr -e 532 -c 2 -a 0 -i 44 -k RTR