Sconfig 0.00000 tap: on snoop: rts? on errs? on
Sconfig 0.00000 salvage: on !bd replies? on
Sconfig 0.00000 grat error: on grat reply: on
Sconfig 0.00000 $reply for props: on ring 0 search: on
Sconfig 0.00000 using MOBICACHE
s 15.000000000 _0_ AGT  --- 0 cbr 512 [0 0 0 0] ------- [0:0 13:0 32 0] [0] 0 0
r 15.000000000 _0_ RTR  --- 0 cbr 512 [0 0 0 0] ------- [0:0 13:0 32 0] [0] 0 0
s 15.000000000 _1_ AGT  --- 2 cbr 512 [0 0 0 0] ------- [1:0 13:1 32 0] [0] 0 0
r 15.000000000 _1_ RTR  --- 2 cbr 512 [0 0 0 0] ------- [1:0 13:1 32 0] [0] 0 0
s 15.000000000 _13_ AGT  --- 4 cbr 512 [0 0 0 0] ------- [13:2 7:0 32 0] [0] 0 0
r 15.000000000 _13_ RTR  --- 4 cbr 512 [0 0 0 0] ------- [13:2 7:0 32 0] [0] 0 0
s 15.000994867 _13_ RTR  --- 5 DSR 32 [0 0 0 0] ------- [13:255 7:255 32 0] 1 [1 1] [0 1 0 0->0] [0 0 0 0->0]
r 15.002007201 _10_ RTR  --- 5 DSR 32 [0 ffffffff d 800] ------- [13:255 7:255 32 0] 1 [1 1] [0 1 0 0->0] [0 0 0 0->0]
r 15.002007201 _16_ RTR  --- 5 DSR 32 [0 ffffffff d 800] ------- [13:255 7:255 32 0] 1 [1 1] [0 1 0 0->0] [0 0 0 0->0]
r 15.002007534 _7_ RTR  --- 5 DSR 32 [0 ffffffff d 800] ------- [13:255 7:255 32 0] 1 [1 1] [0 1 0 0->0] [0 0 0 0->0]
r 15.002007534 _12_ RTR  --- 5 DSR 32 [0 ffffffff d 800] ------- [13:255 7:255 32 0] 1 [1 1] [0 1 0 0->0] [0 0 0 0->0]
r 15.002007534 _14_ RTR  --- 5 DSR 32 [0 ffffffff d 800] ------- [13:255 7:255 32 0] 1 [1 1] [0 1 0 0->0] [0 0 0 0->0]
r 15.002007613 _15_ RTR  --- 5 DSR 32 [0 ffffffff d 800] ------- [13:255 7:255 32 0] 1 [1 1] [0 1 0 0->0] [0 0 0 0->0]
r 15.002007613 _9_ RTR  --- 5 DSR 32 [0 ffffffff d 800] ------- [13:255 7:255 32 0] 1 [1 1] [0 1 0 0->0] [0 0 0 0->0]
r 15.002007613 _11_ RTR  --- 5 DSR 32 [0 ffffffff d 800] ------- [13:255 7:255 32 0] 1 [1 1] [0 1 0 0->0] [0 0 0 0->0]
r 15.002007613 _17_ RTR  --- 5 DSR 32 [0 ffffffff d 800] ------- [13:255 7:255 32 0] 1 [1 1] [0 1 0 0->0] [0 0 0 0->0]
s 15.003906122 _7_ RTR  --- 6 DSR 44 [0 0 0 0] ------- [7:255 13:255 254 13] 2 [0 1] [1 1 2 13->7] [0 0 0 0->0]
r 15.005832122 _13_ RTR  --- 6 DSR 44 [13a d 7 800] ------- [7:255 13:255 254 13] 2 [0 1] [1 1 2 13->7] [0 0 0 0->0]
SFESTs 15.005832122 _13_ 4 [13 -> 7] 1(1) to 7 [13 |7 ]
s 15.005832122 _13_ RTR  --- 4 cbr 548 [0 0 0 0] ------- [13:2 7:0 32 7] [0] 0 0
s 15.006276701 _1_ RTR  --- 3 DSR 32 [0 0 0 0] ------- [1:255 13:255 32 0] 1 [1 1] [0 1 0 0->0] [0 0 0 0->0]
s 15.007183001 _0_ RTR  --- 1 DSR 32 [0 0 0 0] ------- [0:255 13:255 32 0] 1 [1 1] [0 1 0 0->0] [0 0 0 0->0]
r 15.011834122 _7_ RTR  --- 4 cbr 548 [13a 7 d 800] ------- [13:2 7:0 32 7] [0] 1 0
r 15.011834122 _7_ AGT  --- 4 cbr 512 [13a 7 d 800] ------- [13:2 7:0 32 7] [0] 1 0
r 15.012981122 _4_ RTR  --- 3 DSR 32 [0 ffffffff 1 800] ------- [1:255 13:255 32 0] 1 [1 1] [0 1 0 0->0] [0 0 0 0->0]
s 15.012981122 _4_ RTR  --- 7 DSR 52 [0 0 0 0] ------- [4:255 1:255 255 1] 2 [0 1] [1 1 4 1->13] [0 0 0 0->0]
r 15.012981455 _0_ RTR  --- 3 DSR 32 [0 ffffffff 1 800] ------- [1:255 13:255 32 0] 1 [1 1] [0 1 0 0->0] [0 0 0 0->0]
r 15.012981455 _7_ RTR  --- 3 DSR 32 [0 ffffffff 1 800] ------- [1:255 13:255 32 0] 1 [1 1] [0 1 0 0->0] [0 0 0 0->0]
r 15.012981455 _2_ RTR  --- 3 DSR 32 [0 ffffffff 1 800] ------- [1:255 13:255 32 0] 1 [1 1] [0 1 0 0->0] [0 0 0 0->0]
s 15.012981455 _7_ RTR  --- 8 DSR 48 [0 0 0 0] ------- [7:255 1:255 255 1] 2 [0 1] [1 1 3 1->13] [0 0 0 0->0]
r 15.012981534 _3_ RTR  --- 3 DSR 32 [0 ffffffff 1 800] ------- [1:255 13:255 32 0] 1 [1 1] [0 1 0 0->0] [0 0 0 0->0]
r 15.012981534 _5_ RTR  --- 3 DSR 32 [0 ffffffff 1 800] ------- [1:255 13:255 32 0] 1 [1 1] [0 1 0 0->0] [0 0 0 0->0]
s 15.012981534 _3_ RTR  --- 9 DSR 52 [0 0 0 0] ------- [3:255 1:255 255 1] 2 [0 1] [1 1 4 1->13] [0 0 0 0->0]
s 15.012981534 _5_ RTR  --- 10 DSR 52 [0 0 0 0] ------- [5:255 1:255 255 1] 2 [0 1] [1 1 4 1->13] [0 0 0 0->0]
r 15.014569455 _1_ RTR  --- 8 DSR 48 [13a 1 7 800] ------- [7:255 1:255 255 1] 2 [0 1] [1 1 3 1->13] [0 0 0 0->0]
SFESTs 15.014569455 _1_ 2 [1 -> 13] 1(1) to 7 [1 |7 13 ]
s 15.014569455 _1_ RTR  --- 2 cbr 552 [0 0 0 0] ------- [1:0 13:1 32 7] [0] 0 0
r 15.016462789 _1_ RTR  --- 7 DSR 52 [13a 1 4 800] ------- [4:255 1:255 255 1] 2 [0 1] [1 1 4 1->13] [0 0 0 0->0]
r 15.022376789 _7_ RTR  --- 2 cbr 552 [13a 7 1 800] ------- [1:0 13:1 32 7] [0] 1 0
f 15.022376789 _7_ RTR  --- 2 cbr 552 [13a 7 1 800] ------- [1:0 13:1 31 13] [0] 1 0
r 15.024351770 _1_ RTR  --- 9 DSR 52 [13a 1 3 800] ------- [3:255 1:255 255 1] 2 [0 1] [1 1 4 1->13] [0 0 0 0->0]
r 15.025588770 _3_ RTR  --- 1 DSR 32 [0 ffffffff 0 800] ------- [0:255 13:255 32 0] 1 [1 1] [0 1 0 0->0] [0 0 0 0->0]
s 15.025588770 _3_ RTR  --- 11 DSR 52 [0 0 0 0] ------- [3:255 0:255 255 0] 2 [0 1] [1 1 4 0->13] [0 0 0 0->0]
r 15.025589103 _6_ RTR  --- 1 DSR 32 [0 ffffffff 0 800] ------- [0:255 13:255 32 0] 1 [1 1] [0 1 0 0->0] [0 0 0 0->0]
r 15.025589103 _1_ RTR  --- 1 DSR 32 [0 ffffffff 0 800] ------- [0:255 13:255 32 0] 1 [1 1] [0 1 0 0->0] [0 0 0 0->0]
s 15.025589103 _6_ RTR  --- 12 DSR 52 [0 0 0 0] ------- [6:255 0:255 255 0] 2 [0 1] [1 1 4 0->13] [0 0 0 0->0]
s 15.025589103 _1_ RTR  --- 13 DSR 52 [0 0 0 0] ------- [1:255 0:255 255 0] 2 [0 1] [1 1 4 0->13] [0 0 0 0->0]
r 15.025589182 _4_ RTR  --- 1 DSR 32 [0 ffffffff 0 800] ------- [0:255 13:255 32 0] 1 [1 1] [0 1 0 0->0] [0 0 0 0->0]
s 15.025589182 _4_ RTR  --- 14 DSR 52 [0 0 0 0] ------- [4:255 0:255 255 0] 2 [0 1] [1 1 4 0->13] [0 0 0 0->0]
r 15.027499103 _0_ RTR  --- 12 DSR 52 [13a 0 6 800] ------- [6:255 0:255 255 0] 2 [0 1] [1 1 4 0->13] [0 0 0 0->0]
SFESTs 15.027499103 _0_ 0 [0 -> 13] 1(1) to 6 [0 |6 7 13 ]
s 15.027499103 _0_ RTR  --- 0 cbr 556 [0 0 0 0] ------- [0:0 13:0 32 6] [0] 0 0
r 15.033525103 _6_ RTR  --- 0 cbr 556 [13a 6 0 800] ------- [0:0 13:0 32 6] [0] 1 0
f 15.033525103 _6_ RTR  --- 0 cbr 556 [13a 6 0 800] ------- [0:0 13:0 31 7] [0] 1 0
r 15.039431103 _7_ RTR  --- 0 cbr 556 [13a 7 6 800] ------- [0:0 13:0 31 7] [0] 2 0
f 15.039431103 _7_ RTR  --- 0 cbr 556 [13a 7 6 800] ------- [0:0 13:0 30 13] [0] 2 0
r 15.041345673 _0_ RTR  --- 14 DSR 52 [13a 0 4 800] ------- [4:255 0:255 255 0] 2 [0 1] [1 1 4 0->13] [0 0 0 0->0]
r 15.048167006 _13_ RTR  --- 2 cbr 552 [13a d 7 800] ------- [1:0 13:1 31 13] [0] 2 0
r 15.048167006 _13_ AGT  --- 2 cbr 512 [13a d 7 800] ------- [1:0 13:1 31 13] [0] 2 0
r 15.054373673 _13_ RTR  --- 0 cbr 556 [13a d 7 800] ------- [0:0 13:0 30 13] [0] 3 0
r 15.054373673 _13_ AGT  --- 0 cbr 512 [13a d 7 800] ------- [0:0 13:0 30 13] [0] 3 0
r 15.056893111 _1_ RTR  --- 10 DSR 52 [13a 1 5 800] ------- [5:255 1:255 255 1] 2 [0 1] [1 1 4 1->13] [0 0 0 0->0]
r 15.059187111 _0_ RTR  --- 13 DSR 52 [13a 0 1 800] ------- [1:255 0:255 255 0] 2 [0 1] [1 1 4 0->13] [0 0 0 0->0]
r 15.061460444 _0_ RTR  --- 11 DSR 52 [13a 0 3 800] ------- [3:255 0:255 255 0] 2 [0 1] [1 1 4 0->13] [0 0 0 0->0]
s 15.071374406 _0_ AGT  --- 15 cbr 512 [0 0 0 0] ------- [0:0 13:0 32 0] [1] 0 0
r 15.071374406 _0_ RTR  --- 15 cbr 512 [0 0 0 0] ------- [0:0 13:0 32 0] [1] 0 0
SFESTs 15.071374406 _0_ 15 [0 -> 13] 1(1) to 6 [0 |6 7 13 ]
s 15.071374406 _0_ RTR  --- 15 cbr 556 [0 0 0 0] ------- [0:0 13:0 32 6] [1] 0 0
r 15.077236406 _6_ RTR  --- 15 cbr 556 [13a 6 0 800] ------- [0:0 13:0 32 6] [1] 1 0
f 15.077236406 _6_ RTR  --- 15 cbr 556 [13a 6 0 800] ------- [0:0 13:0 31 7] [1] 1 0
r 15.083302406 _7_ RTR  --- 15 cbr 556 [13a 7 6 800] ------- [0:0 13:0 31 7] [1] 2 0
f 15.083302406 _7_ RTR  --- 15 cbr 556 [13a 7 6 800] ------- [0:0 13:0 30 13] [1] 2 0
r 15.089448406 _13_ RTR  --- 15 cbr 556 [13a d 7 800] ------- [0:0 13:0 30 13] [1] 3 0
r 15.089448406 _13_ AGT  --- 15 cbr 512 [13a d 7 800] ------- [0:0 13:0 30 13] [1] 3 0
s 15.100472116 _1_ AGT  --- 16 cbr 512 [0 0 0 0] ------- [1:0 13:1 32 0] [1] 0 0
r 15.100472116 _1_ RTR  --- 16 cbr 512 [0 0 0 0] ------- [1:0 13:1 32 0] [1] 0 0
SFESTs 15.100472116 _1_ 16 [1 -> 13] 1(1) to 7 [1 |7 13 ]
s 15.100472116 _1_ RTR  --- 16 cbr 552 [0 0 0 0] ------- [1:0 13:1 32 7] [1] 0 0
s 15.106140563 _13_ AGT  --- 17 cbr 512 [0 0 0 0] ------- [13:2 7:0 32 0] [1] 0 0
r 15.106140563 _13_ RTR  --- 17 cbr 512 [0 0 0 0] ------- [13:2 7:0 32 0] [1] 0 0
SFESTs 15.106140563 _13_ 17 [13 -> 7] 1(1) to 7 [13 |7 ]
s 15.106140563 _13_ RTR  --- 17 cbr 548 [0 0 0 0] ------- [13:2 7:0 32 7] [1] 0 0
r 15.106482116 _7_ RTR  --- 16 cbr 552 [13a 7 1 800] ------- [1:0 13:1 32 7] [1] 1 0
f 15.106482116 _7_ RTR  --- 16 cbr 552 [13a 7 1 800] ------- [1:0 13:1 31 13] [1] 1 0
r 15.112756116 _13_ RTR  --- 16 cbr 552 [13a d 7 800] ------- [1:0 13:1 31 13] [1] 2 0
r 15.112756116 _13_ AGT  --- 16 cbr 512 [13a d 7 800] ------- [1:0 13:1 31 13] [1] 2 0
r 15.118818116 _7_ RTR  --- 17 cbr 548 [13a 7 d 800] ------- [13:2 7:0 32 7] [1] 1 0
r 15.118818116 _7_ AGT  --- 17 cbr 512 [13a 7 d 800] ------- [13:2 7:0 32 7] [1] 1 0
s 15.126952645 _0_ AGT  --- 18 cbr 512 [0 0 0 0] ------- [0:0 13:0 32 0] [2] 0 0
r 15.126952645 _0_ RTR  --- 18 cbr 512 [0 0 0 0] ------- [0:0 13:0 32 0] [2] 0 0
SFESTs 15.126952645 _0_ 18 [0 -> 13] 1(1) to 6 [0 |6 7 13 ]
s 15.126952645 _0_ RTR  --- 18 cbr 556 [0 0 0 0] ------- [0:0 13:0 32 6] [2] 0 0
r 15.133014645 _6_ RTR  --- 18 cbr 556 [13a 6 0 800] ------- [0:0 13:0 32 6] [2] 1 0
f 15.133014645 _6_ RTR  --- 18 cbr 556 [13a 6 0 800] ------- [0:0 13:0 31 7] [2] 1 0
r 15.139500645 _7_ RTR  --- 18 cbr 556 [13a 7 6 800] ------- [0:0 13:0 31 7] [2] 2 0
f 15.139500645 _7_ RTR  --- 18 cbr 556 [13a 7 6 800] ------- [0:0 13:0 30 13] [2] 2 0
r 15.145426645 _13_ RTR  --- 18 cbr 556 [13a d 7 800] ------- [0:0 13:0 30 13] [2] 3 0
r 15.145426645 _13_ AGT  --- 18 cbr 512 [13a d 7 800] ------- [0:0 13:0 30 13] [2] 3 0
s 15.194873081 _13_ AGT  --- 19 cbr 512 [0 0 0 0] ------- [13:2 7:0 32 0] [2] 0 0
r 15.194873081 _13_ RTR  --- 19 cbr 512 [0 0 0 0] ------- [13:2 7:0 32 0] [2] 0 0
SFESTs 15.194873081 _13_ 19 [13 -> 7] 1(1) to 7 [13 |7 ]
s 15.194873081 _13_ RTR  --- 19 cbr 548 [0 0 0 0] ------- [13:2 7:0 32 7] [2] 0 0
r 15.200571081 _7_ RTR  --- 19 cbr 548 [13a 7 d 800] ------- [13:2 7:0 32 7] [2] 1 0
r 15.200571081 _7_ AGT  --- 19 cbr 512 [13a 7 d 800] ------- [13:2 7:0 32 7] [2] 1 0
s 15.225692377 _0_ AGT  --- 20 cbr 512 [0 0 0 0] ------- [0:0 13:0 32 0] [3] 0 0
r 15.225692377 _0_ RTR  --- 20 cbr 512 [0 0 0 0] ------- [0:0 13:0 32 0] [3] 0 0
SFs 15.225692377 _0_ 20 [0 -> 13] 1(0) to 6 
s 15.225692377 _0_ RTR  --- 20 cbr 532 [0 0 0 0] ------- [0:0 13:0 32 6] [3] 0 0
r 15.231642377 _6_ RTR  --- 20 cbr 532 [13a 6 0 800] ------- [0:0 13:0 32 6] [3] 1 0
SFf 15.231642377 _6_ 20 [0 -> 13] 1 to 7
f 15.231642377 _6_ RTR  --- 20 cbr 532 [13a 6 0 800] ------- [0:0 13:0 31 7] [3] 1 0
r 15.237856377 _7_ RTR  --- 20 cbr 532 [13a 7 6 800] ------- [0:0 13:0 31 7] [3] 2 0
SFf 15.237856377 _7_ 20 [0 -> 13] 1 to 13
f 15.237856377 _7_ RTR  --- 20 cbr 532 [13a 7 6 800] ------- [0:0 13:0 30 13] [3] 2 0
s 15.239778941 _1_ AGT  --- 21 cbr 512 [0 0 0 0] ------- [1:0 13:1 32 0] [2] 0 0
r 15.239778941 _1_ RTR  --- 21 cbr 512 [0 0 0 0] ------- [1:0 13:1 32 0] [2] 0 0
SFESTs 15.239778941 _1_ 21 [1 -> 13] 1(1) to 7 [1 |7 13 ]
s 15.239778941 _1_ RTR  --- 21 cbr 552 [0 0 0 0] ------- [1:0 13:1 32 7] [2] 0 0
r 15.244130377 _13_ RTR  --- 20 cbr 532 [13a d 7 800] ------- [0:0 13:0 30 13] [3] 3 0
r 15.244130377 _13_ AGT  --- 20 cbr 512 [13a d 7 800] ------- [0:0 13:0 30 13] [3] 3 0
r 15.250849711 _7_ RTR  --- 21 cbr 552 [13a 7 1 800] ------- [1:0 13:1 32 7] [2] 1 0
f 15.250849711 _7_ RTR  --- 21 cbr 552 [13a 7 1 800] ------- [1:0 13:1 31 13] [2] 1 0
r 15.257243711 _13_ RTR  --- 21 cbr 552 [13a d 7 800] ------- [1:0 13:1 31 13] [2] 2 0
r 15.257243711 _13_ AGT  --- 21 cbr 512 [13a d 7 800] ------- [1:0 13:1 31 13] [2] 2 0
s 15.312570809 _13_ AGT  --- 22 cbr 512 [0 0 0 0] ------- [13:2 7:0 32 0] [3] 0 0
r 15.312570809 _13_ RTR  --- 22 cbr 512 [0 0 0 0] ------- [13:2 7:0 32 0] [3] 0 0
SFs 15.312570809 _13_ 22 [13 -> 7] 1(0) to 7 
s 15.312570809 _13_ RTR  --- 22 cbr 532 [0 0 0 0] ------- [13:2 7:0 32 7] [3] 0 0
r 15.318580809 _7_ RTR  --- 22 cbr 532 [13a 7 d 800] ------- [13:2 7:0 32 7] [3] 1 0
r 15.318580809 _7_ AGT  --- 22 cbr 512 [13a 7 d 800] ------- [13:2 7:0 32 7] [3] 1 0
s 15.345135039 _0_ AGT  --- 23 cbr 512 [0 0 0 0] ------- [0:0 13:0 32 0] [4] 0 0
r 15.345135039 _0_ RTR  --- 23 cbr 512 [0 0 0 0] ------- [0:0 13:0 32 0] [4] 0 0
SFs 15.345135039 _0_ 23 [0 -> 13] 1(0) to 6 
s 15.345135039 _0_ RTR  --- 23 cbr 532 [0 0 0 0] ------- [0:0 13:0 32 6] [4] 0 0
r 15.350865039 _6_ RTR  --- 23 cbr 532 [13a 6 0 800] ------- [0:0 13:0 32 6] [4] 1 0
SFf 15.350865039 _6_ 23 [0 -> 13] 1 to 7
f 15.350865039 _6_ RTR  --- 23 cbr 532 [13a 6 0 800] ------- [0:0 13:0 31 7] [4] 1 0
r 15.356979039 _7_ RTR  --- 23 cbr 532 [13a 7 6 800] ------- [0:0 13:0 31 7] [4] 2 0
SFf 15.356979039 _7_ 23 [0 -> 13] 1 to 13
f 15.356979039 _7_ RTR  --- 23 cbr 532 [13a 7 6 800] ------- [0:0 13:0 30 13] [4] 2 0
r 15.362833039 _13_ RTR  --- 23 cbr 532 [13a d 7 800] ------- [0:0 13:0 30 13] [4] 3 0
r 15.362833039 _13_ AGT  --- 23 cbr 512 [13a d 7 800] ------- [0:0 13:0 30 13] [4] 3 0
s 15.364468467 _1_ AGT  --- 24 cbr 512 [0 0 0 0] ------- [1:0 13:1 32 0] [3] 0 0
r 15.364468467 _1_ RTR  --- 24 cbr 512 [0 0 0 0] ------- [1:0 13:1 32 0] [3] 0 0
SFs 15.364468467 _1_ 24 [1 -> 13] 1(0) to 7 
s 15.364468467 _1_ RTR  --- 24 cbr 532 [0 0 0 0] ------- [1:0 13:1 32 7] [3] 0 0
r 15.370278467 _7_ RTR  --- 24 cbr 532 [13a 7 1 800] ------- [1:0 13:1 32 7] [3] 1 0
SFf 15.370278467 _7_ 24 [1 -> 13] 1 to 13
f 15.370278467 _7_ RTR  --- 24 cbr 532 [13a 7 1 800] ------- [1:0 13:1 31 13] [3] 1 0
r 15.376192467 _13_ RTR  --- 24 cbr 532 [13a d 7 800] ------- [1:0 13:1 31 13] [3] 2 0
r 15.376192467 _13_ AGT  --- 24 cbr 512 [13a d 7 800] ------- [1:0 13:1 31 13] [3] 2 0
s 15.436246366 _13_ AGT  --- 25 cbr 512 [0 0 0 0] ------- [13:2 7:0 32 0] [4] 0 0
r 15.436246366 _13_ RTR  --- 25 cbr 512 [0 0 0 0] ------- [13:2 7:0 32 0] [4] 0 0
SFs 15.436246366 _13_ 25 [13 -> 7] 1(0) to 7 
s 15.436246366 _13_ RTR  --- 25 cbr 532 [0 0 0 0] ------- [13:2 7:0 32 7] [4] 0 0
r 15.442236366 _7_ RTR  --- 25 cbr 532 [13a 7 d 800] ------- [13:2 7:0 32 7] [4] 1 0
r 15.442236366 _7_ AGT  --- 25 cbr 512 [13a 7 d 800] ------- [13:2 7:0 32 7] [4] 1 0
s 15.444948134 _1_ AGT  --- 26 cbr 512 [0 0 0 0] ------- [1:0 13:1 32 0] [4] 0 0
r 15.444948134 _1_ RTR  --- 26 cbr 512 [0 0 0 0] ------- [1:0 13:1 32 0] [4] 0 0
SFs 15.444948134 _1_ 26 [1 -> 13] 1(0) to 7 
s 15.444948134 _1_ RTR  --- 26 cbr 532 [0 0 0 0] ------- [1:0 13:1 32 7] [4] 0 0
r 15.450818134 _7_ RTR  --- 26 cbr 532 [13a 7 1 800] ------- [1:0 13:1 32 7] [4] 1 0
SFf 15.450818134 _7_ 26 [1 -> 13] 1 to 13
f 15.450818134 _7_ RTR  --- 26 cbr 532 [13a 7 1 800] ------- [1:0 13:1 31 13] [4] 1 0
r 15.456852134 _13_ RTR  --- 26 cbr 532 [13a d 7 800] ------- [1:0 13:1 31 13] [4] 2 0
r 15.456852134 _13_ AGT  --- 26 cbr 512 [13a d 7 800] ------- [1:0 13:1 31 13] [4] 2 0
s 15.464860452 _0_ AGT  --- 27 cbr 512 [0 0 0 0] ------- [0:0 13:0 32 0] [5] 0 0
r 15.464860452 _0_ RTR  --- 27 cbr 512 [0 0 0 0] ------- [0:0 13:0 32 0] [5] 0 0
SFs 15.464860452 _0_ 27 [0 -> 13] 1(0) to 6 
s 15.464860452 _0_ RTR  --- 27 cbr 532 [0 0 0 0] ------- [0:0 13:0 32 6] [5] 0 0
r 15.470370452 _6_ RTR  --- 27 cbr 532 [13a 6 0 800] ------- [0:0 13:0 32 6] [5] 1 0
SFf 15.470370452 _6_ 27 [0 -> 13] 1 to 7
f 15.470370452 _6_ RTR  --- 27 cbr 532 [13a 6 0 800] ------- [0:0 13:0 31 7] [5] 1 0
r 15.476084452 _7_ RTR  --- 27 cbr 532 [13a 7 6 800] ------- [0:0 13:0 31 7] [5] 2 0
SFf 15.476084452 _7_ 27 [0 -> 13] 1 to 13
f 15.476084452 _7_ RTR  --- 27 cbr 532 [13a 7 6 800] ------- [0:0 13:0 30 13] [5] 2 0
r 15.481878452 _13_ RTR  --- 27 cbr 532 [13a d 7 800] ------- [0:0 13:0 30 13] [5] 3 0
r 15.481878452 _13_ AGT  --- 27 cbr 512 [13a d 7 800] ------- [0:0 13:0 30 13] [5] 3 0
s 15.514101393 _13_ AGT  --- 28 cbr 512 [0 0 0 0] ------- [13:2 7:0 32 0] [5] 0 0
r 15.514101393 _13_ RTR  --- 28 cbr 512 [0 0 0 0] ------- [13:2 7:0 32 0] [5] 0 0
SFs 15.514101393 _13_ 28 [13 -> 7] 1(0) to 7 
s 15.514101393 _13_ RTR  --- 28 cbr 532 [0 0 0 0] ------- [13:2 7:0 32 7] [5] 0 0
s 15.517344175 _0_ AGT  --- 29 cbr 512 [0 0 0 0] ------- [0:0 13:0 32 0] [6] 0 0
r 15.517344175 _0_ RTR  --- 29 cbr 512 [0 0 0 0] ------- [0:0 13:0 32 0] [6] 0 0
SFs 15.517344175 _0_ 29 [0 -> 13] 1(0) to 6 
s 15.517344175 _0_ RTR  --- 29 cbr 532 [0 0 0 0] ------- [0:0 13:0 32 6] [6] 0 0
r 15.519831393 _7_ RTR  --- 28 cbr 532 [13a 7 d 800] ------- [13:2 7:0 32 7] [5] 1 0
r 15.519831393 _7_ AGT  --- 28 cbr 512 [13a 7 d 800] ------- [13:2 7:0 32 7] [5] 1 0
r 15.526070336 _6_ RTR  --- 29 cbr 532 [13a 6 0 800] ------- [0:0 13:0 32 6] [6] 1 0
SFf 15.526070336 _6_ 29 [0 -> 13] 1 to 7
f 15.526070336 _6_ RTR  --- 29 cbr 532 [13a 6 0 800] ------- [0:0 13:0 31 7] [6] 1 0
r 15.531864336 _7_ RTR  --- 29 cbr 532 [13a 7 6 800] ------- [0:0 13:0 31 7] [6] 2 0
SFf 15.531864336 _7_ 29 [0 -> 13] 1 to 13
f 15.531864336 _7_ RTR  --- 29 cbr 532 [13a 7 6 800] ------- [0:0 13:0 30 13] [6] 2 0
r 15.537638336 _13_ RTR  --- 29 cbr 532 [13a d 7 800] ------- [0:0 13:0 30 13] [6] 3 0
r 15.537638336 _13_ AGT  --- 29 cbr 512 [13a d 7 800] ------- [0:0 13:0 30 13] [6] 3 0
s 15.581776833 _1_ AGT  --- 30 cbr 512 [0 0 0 0] ------- [1:0 13:1 32 0] [5] 0 0
r 15.581776833 _1_ RTR  --- 30 cbr 512 [0 0 0 0] ------- [1:0 13:1 32 0] [5] 0 0
SFs 15.581776833 _1_ 30 [1 -> 13] 1(0) to 7 
s 15.581776833 _1_ RTR  --- 30 cbr 532 [0 0 0 0] ------- [1:0 13:1 32 7] [5] 0 0
r 15.587626833 _7_ RTR  --- 30 cbr 532 [13a 7 1 800] ------- [1:0 13:1 32 7] [5] 1 0
SFf 15.587626833 _7_ 30 [1 -> 13] 1 to 13
f 15.587626833 _7_ RTR  --- 30 cbr 532 [13a 7 1 800] ------- [1:0 13:1 31 13] [5] 1 0
r 15.593860833 _13_ RTR  --- 30 cbr 532 [13a d 7 800] ------- [1:0 13:1 31 13] [5] 2 0
r 15.593860833 _13_ AGT  --- 30 cbr 512 [13a d 7 800] ------- [1:0 13:1 31 13] [5] 2 0
s 15.649012850 _1_ AGT  --- 31 cbr 512 [0 0 0 0] ------- [1:0 13:1 32 0] [6] 0 0
r 15.649012850 _1_ RTR  --- 31 cbr 512 [0 0 0 0] ------- [1:0 13:1 32 0] [6] 0 0
SFs 15.649012850 _1_ 31 [1 -> 13] 1(0) to 7 
s 15.649012850 _1_ RTR  --- 31 cbr 532 [0 0 0 0] ------- [1:0 13:1 32 7] [6] 0 0
r 15.654722850 _7_ RTR  --- 31 cbr 532 [13a 7 1 800] ------- [1:0 13:1 32 7] [6] 1 0
SFf 15.654722850 _7_ 31 [1 -> 13] 1 to 13
f 15.654722850 _7_ RTR  --- 31 cbr 532 [13a 7 1 800] ------- [1:0 13:1 31 13] [6] 1 0
s 15.658628924 _13_ AGT  --- 32 cbr 512 [0 0 0 0] ------- [13:2 7:0 32 0] [6] 0 0
r 15.658628924 _13_ RTR  --- 32 cbr 512 [0 0 0 0] ------- [13:2 7:0 32 0] [6] 0 0
SFs 15.658628924 _13_ 32 [13 -> 7] 1(0) to 7 
s 15.658628924 _13_ RTR  --- 32 cbr 532 [0 0 0 0] ------- [13:2 7:0 32 7] [6] 0 0
s 15.659807673 _0_ AGT  --- 33 cbr 512 [0 0 0 0] ------- [0:0 13:0 32 0] [7] 0 0
r 15.659807673 _0_ RTR  --- 33 cbr 512 [0 0 0 0] ------- [0:0 13:0 32 0] [7] 0 0
SFs 15.659807673 _0_ 33 [0 -> 13] 1(0) to 6 
s 15.659807673 _0_ RTR  --- 33 cbr 532 [0 0 0 0] ------- [0:0 13:0 32 6] [7] 0 0
r 15.660596850 _13_ RTR  --- 31 cbr 532 [13a d 7 800] ------- [1:0 13:1 31 13] [6] 2 0
r 15.660596850 _13_ AGT  --- 31 cbr 512 [13a d 7 800] ------- [1:0 13:1 31 13] [6] 2 0
r 15.666630850 _7_ RTR  --- 32 cbr 532 [13a 7 d 800] ------- [13:2 7:0 32 7] [6] 1 0
r 15.666630850 _7_ AGT  --- 32 cbr 512 [13a 7 d 800] ------- [13:2 7:0 32 7] [6] 1 0
r 15.672989792 _6_ RTR  --- 33 cbr 532 [13a 6 0 800] ------- [0:0 13:0 32 6] [7] 1 0
SFf 15.672989792 _6_ 33 [0 -> 13] 1 to 7
f 15.672989792 _6_ RTR  --- 33 cbr 532 [13a 6 0 800] ------- [0:0 13:0 31 7] [7] 1 0
r 15.679103792 _7_ RTR  --- 33 cbr 532 [13a 7 6 800] ------- [0:0 13:0 31 7] [7] 2 0
SFf 15.679103792 _7_ 33 [0 -> 13] 1 to 13
f 15.679103792 _7_ RTR  --- 33 cbr 532 [13a 7 6 800] ------- [0:0 13:0 30 13] [7] 2 0
r 15.685237792 _13_ RTR  --- 33 cbr 532 [13a d 7 800] ------- [0:0 13:0 30 13] [7] 3 0
r 15.685237792 _13_ AGT  --- 33 cbr 512 [13a d 7 800] ------- [0:0 13:0 30 13] [7] 3 0
s 15.716756805 _1_ AGT  --- 34 cbr 512 [0 0 0 0] ------- [1:0 13:1 32 0] [7] 0 0
r 15.716756805 _1_ RTR  --- 34 cbr 512 [0 0 0 0] ------- [1:0 13:1 32 0] [7] 0 0
SFs 15.716756805 _1_ 34 [1 -> 13] 1(0) to 7 
s 15.716756805 _1_ RTR  --- 34 cbr 532 [0 0 0 0] ------- [1:0 13:1 32 7] [7] 0 0
r 15.722526805 _7_ RTR  --- 34 cbr 532 [13a 7 1 800] ------- [1:0 13:1 32 7] [7] 1 0
SFf 15.722526805 _7_ 34 [1 -> 13] 1 to 13
f 15.722526805 _7_ RTR  --- 34 cbr 532 [13a 7 1 800] ------- [1:0 13:1 31 13] [7] 1 0
r 15.728720805 _13_ RTR  --- 34 cbr 532 [13a d 7 800] ------- [1:0 13:1 31 13] [7] 2 0
r 15.728720805 _13_ AGT  --- 34 cbr 512 [13a d 7 800] ------- [1:0 13:1 31 13] [7] 2 0
s 15.736908907 _0_ AGT  --- 35 cbr 512 [0 0 0 0] ------- [0:0 13:0 32 0] [8] 0 0
r 15.736908907 _0_ RTR  --- 35 cbr 512 [0 0 0 0] ------- [0:0 13:0 32 0] [8] 0 0
SFs 15.736908907 _0_ 35 [0 -> 13] 1(0) to 6 
s 15.736908907 _0_ RTR  --- 35 cbr 532 [0 0 0 0] ------- [0:0 13:0 32 6] [8] 0 0
r 15.742678907 _6_ RTR  --- 35 cbr 532 [13a 6 0 800] ------- [0:0 13:0 32 6] [8] 1 0
SFf 15.742678907 _6_ 35 [0 -> 13] 1 to 7
f 15.742678907 _6_ RTR  --- 35 cbr 532 [13a 6 0 800] ------- [0:0 13:0 31 7] [8] 1 0
r 15.748992907 _7_ RTR  --- 35 cbr 532 [13a 7 6 800] ------- [0:0 13:0 31 7] [8] 2 0
SFf 15.748992907 _7_ 35 [0 -> 13] 1 to 13
f 15.748992907 _7_ RTR  --- 35 cbr 532 [13a 7 6 800] ------- [0:0 13:0 30 13] [8] 2 0
r 15.754786907 _13_ RTR  --- 35 cbr 532 [13a d 7 800] ------- [0:0 13:0 30 13] [8] 3 0
r 15.754786907 _13_ AGT  --- 35 cbr 512 [13a d 7 800] ------- [0:0 13:0 30 13] [8] 3 0
s 15.787802361 _1_ AGT  --- 36 cbr 512 [0 0 0 0] ------- [1:0 13:1 32 0] [8] 0 0
r 15.787802361 _1_ RTR  --- 36 cbr 512 [0 0 0 0] ------- [1:0 13:1 32 0] [8] 0 0
SFs 15.787802361 _1_ 36 [1 -> 13] 1(0) to 7 
s 15.787802361 _1_ RTR  --- 36 cbr 532 [0 0 0 0] ------- [1:0 13:1 32 7] [8] 0 0
r 15.793672361 _7_ RTR  --- 36 cbr 532 [13a 7 1 800] ------- [1:0 13:1 32 7] [8] 1 0
SFf 15.793672361 _7_ 36 [1 -> 13] 1 to 13
f 15.793672361 _7_ RTR  --- 36 cbr 532 [13a 7 1 800] ------- [1:0 13:1 31 13] [8] 1 0
r 15.799386361 _13_ RTR  --- 36 cbr 532 [13a d 7 800] ------- [1:0 13:1 31 13] [8] 2 0
r 15.799386361 _13_ AGT  --- 36 cbr 512 [13a d 7 800] ------- [1:0 13:1 31 13] [8] 2 0
s 15.804810381 _13_ AGT  --- 37 cbr 512 [0 0 0 0] ------- [13:2 7:0 32 0] [7] 0 0
r 15.804810381 _13_ RTR  --- 37 cbr 512 [0 0 0 0] ------- [13:2 7:0 32 0] [7] 0 0
SFs 15.804810381 _13_ 37 [13 -> 7] 1(0) to 7 
s 15.804810381 _13_ RTR  --- 37 cbr 532 [0 0 0 0] ------- [13:2 7:0 32 7] [7] 0 0
r 15.810440381 _7_ RTR  --- 37 cbr 532 [13a 7 d 800] ------- [13:2 7:0 32 7] [7] 1 0
r 15.810440381 _7_ AGT  --- 37 cbr 512 [13a 7 d 800] ------- [13:2 7:0 32 7] [7] 1 0
s 15.845319239 _0_ AGT  --- 38 cbr 512 [0 0 0 0] ------- [0:0 13:0 32 0] [9] 0 0
r 15.845319239 _0_ RTR  --- 38 cbr 512 [0 0 0 0] ------- [0:0 13:0 32 0] [9] 0 0
SFs 15.845319239 _0_ 38 [0 -> 13] 1(0) to 6 
s 15.845319239 _0_ RTR  --- 38 cbr 532 [0 0 0 0] ------- [0:0 13:0 32 6] [9] 0 0
r 15.851069239 _6_ RTR  --- 38 cbr 532 [13a 6 0 800] ------- [0:0 13:0 32 6] [9] 1 0
SFf 15.851069239 _6_ 38 [0 -> 13] 1 to 7
f 15.851069239 _6_ RTR  --- 38 cbr 532 [13a 6 0 800] ------- [0:0 13:0 31 7] [9] 1 0
r 15.856943239 _7_ RTR  --- 38 cbr 532 [13a 7 6 800] ------- [0:0 13:0 31 7] [9] 2 0
SFf 15.856943239 _7_ 38 [0 -> 13] 1 to 13
f 15.856943239 _7_ RTR  --- 38 cbr 532 [13a 7 6 800] ------- [0:0 13:0 30 13] [9] 2 0
r 15.863237239 _13_ RTR  --- 38 cbr 532 [13a d 7 800] ------- [0:0 13:0 30 13] [9] 3 0
r 15.863237239 _13_ AGT  --- 38 cbr 512 [13a d 7 800] ------- [0:0 13:0 30 13] [9] 3 0
s 15.918403157 _1_ AGT  --- 39 cbr 512 [0 0 0 0] ------- [1:0 13:1 32 0] [9] 0 0
r 15.918403157 _1_ RTR  --- 39 cbr 512 [0 0 0 0] ------- [1:0 13:1 32 0] [9] 0 0
SFs 15.918403157 _1_ 39 [1 -> 13] 1(0) to 7 
s 15.918403157 _1_ RTR  --- 39 cbr 532 [0 0 0 0] ------- [1:0 13:1 32 7] [9] 0 0
s 15.919181990 _13_ AGT  --- 40 cbr 512 [0 0 0 0] ------- [13:2 7:0 32 0] [8] 0 0
r 15.919181990 _13_ RTR  --- 40 cbr 512 [0 0 0 0] ------- [13:2 7:0 32 0] [8] 0 0
SFs 15.919181990 _13_ 40 [13 -> 7] 1(0) to 7 
s 15.919181990 _13_ RTR  --- 40 cbr 532 [0 0 0 0] ------- [13:2 7:0 32 7] [8] 0 0
r 15.923973157 _7_ RTR  --- 39 cbr 532 [13a 7 1 800] ------- [1:0 13:1 32 7] [9] 1 0
SFf 15.923973157 _7_ 39 [1 -> 13] 1 to 13
f 15.923973157 _7_ RTR  --- 39 cbr 532 [13a 7 1 800] ------- [1:0 13:1 31 13] [9] 1 0
r 15.929957824 _7_ RTR  --- 40 cbr 532 [13a 7 d 800] ------- [13:2 7:0 32 7] [8] 1 0
r 15.929957824 _7_ AGT  --- 40 cbr 512 [13a 7 d 800] ------- [13:2 7:0 32 7] [8] 1 0
r 15.935971824 _13_ RTR  --- 39 cbr 532 [13a d 7 800] ------- [1:0 13:1 31 13] [9] 2 0
r 15.935971824 _13_ AGT  --- 39 cbr 512 [13a d 7 800] ------- [1:0 13:1 31 13] [9] 2 0
s 15.981578599 _1_ AGT  --- 41 cbr 512 [0 0 0 0] ------- [1:0 13:1 32 0] [10] 0 0
r 15.981578599 _1_ RTR  --- 41 cbr 512 [0 0 0 0] ------- [1:0 13:1 32 0] [10] 0 0
SFs 15.981578599 _1_ 41 [1 -> 13] 1(0) to 7 
s 15.981578599 _1_ RTR  --- 41 cbr 532 [0 0 0 0] ------- [1:0 13:1 32 7] [10] 0 0
r 15.987188599 _7_ RTR  --- 41 cbr 532 [13a 7 1 800] ------- [1:0 13:1 32 7] [10] 1 0
SFf 15.987188599 _7_ 41 [1 -> 13] 1 to 13
f 15.987188599 _7_ RTR  --- 41 cbr 532 [13a 7 1 800] ------- [1:0 13:1 31 13] [10] 1 0
r 15.993162599 _13_ RTR  --- 41 cbr 532 [13a d 7 800] ------- [1:0 13:1 31 13] [10] 2 0
r 15.993162599 _13_ AGT  --- 41 cbr 512 [13a d 7 800] ------- [1:0 13:1 31 13] [10] 2 0
s 15.994679370 _0_ AGT  --- 42 cbr 512 [0 0 0 0] ------- [0:0 13:0 32 0] [10] 0 0
r 15.994679370 _0_ RTR  --- 42 cbr 512 [0 0 0 0] ------- [0:0 13:0 32 0] [10] 0 0
SFs 15.994679370 _0_ 42 [0 -> 13] 1(0) to 6 
s 15.994679370 _0_ RTR  --- 42 cbr 532 [0 0 0 0] ------- [0:0 13:0 32 6] [10] 0 0
r 16.000289370 _6_ RTR  --- 42 cbr 532 [13a 6 0 800] ------- [0:0 13:0 32 6] [10] 1 0
SFf 16.000289370 _6_ 42 [0 -> 13] 1 to 7
f 16.000289370 _6_ RTR  --- 42 cbr 532 [13a 6 0 800] ------- [0:0 13:0 31 7] [10] 1 0
r 16.006003370 _7_ RTR  --- 42 cbr 532 [13a 7 6 800] ------- [0:0 13:0 31 7] [10] 2 0
SFf 16.006003370 _7_ 42 [0 -> 13] 1 to 13
f 16.006003370 _7_ RTR  --- 42 cbr 532 [13a 7 6 800] ------- [0:0 13:0 30 13] [10] 2 0
r 16.011817370 _13_ RTR  --- 42 cbr 532 [13a d 7 800] ------- [0:0 13:0 30 13] [10] 3 0
r 16.011817370 _13_ AGT  --- 42 cbr 512 [13a d 7 800] ------- [0:0 13:0 30 13] [10] 3 0
s 16.026817185 _13_ AGT  --- 43 cbr 512 [0 0 0 0] ------- [13:2 7:0 32 0] [9] 0 0
r 16.026817185 _13_ RTR  --- 43 cbr 512 [0 0 0 0] ------- [13:2 7:0 32 0] [9] 0 0
SFs 16.026817185 _13_ 43 [13 -> 7] 1(0) to 7 
s 16.026817185 _13_ RTR  --- 43 cbr 532 [0 0 0 0] ------- [13:2 7:0 32 7] [9] 0 0
r 16.032547185 _7_ RTR  --- 43 cbr 532 [13a 7 d 800] ------- [13:2 7:0 32 7] [9] 1 0
r 16.032547185 _7_ AGT  --- 43 cbr 512 [13a 7 d 800] ------- [13:2 7:0 32 7] [9] 1 0
s 16.065486729 _0_ AGT  --- 44 cbr 512 [0 0 0 0] ------- [0:0 13:0 32 0] [11] 0 0
r 16.065486729 _0_ RTR  --- 44 cbr 512 [0 0 0 0] ------- [0:0 13:0 32 0] [11] 0 0
SFs 16.065486729 _0_ 44 [0 -> 13] 1(0) to 6 
s 16.065486729 _0_ RTR  --- 44 cbr 532 [0 0 0 0] ------- [0:0 13:0 32 6] [11] 0 0
r 16.071056729 _6_ RTR  --- 44 cbr 532 [13a 6 0 800] ------- [0:0 13:0 32 6] [11] 1 0
SFf 16.071056729 _6_ 44 [0 -> 13] 1 to 7
f 16.071056729 _6_ RTR  --- 44 cbr 532 [13a 6 0 800] ------- [0:0 13:0 31 7] [11] 1 0
r 16.077250729 _7_ RTR  --- 44 cbr 532 [13a 7 6 800] ------- [0:0 13:0 31 7] [11] 2 0
SFf 16.077250729 _7_ 44 [0 -> 13] 1 to 13
f 16.077250729 _7_ RTR  --- 44 cbr 532 [13a 7 6 800] ------- [0:0 13:0 30 13] [11] 2 0
r 16.083124729 _13_ RTR  --- 44 cbr 532 [13a d 7 800] ------- [0:0 13:0 30 13] [11] 3 0
r 16.083124729 _13_ AGT  --- 44 cbr 512 [13a d 7 800] ------- [0:0 13:0 30 13] [11] 3 0
s 16.102640656 _1_ AGT  --- 45 cbr 512 [0 0 0 0] ------- [1:0 13:1 32 0] [11] 0 0
r 16.102640656 _1_ RTR  --- 45 cbr 512 [0 0 0 0] ------- [1:0 13:1 32 0] [11] 0 0
SFs 16.102640656 _1_ 45 [1 -> 13] 1(0) to 7 
s 16.102640656 _1_ RTR  --- 45 cbr 532 [0 0 0 0] ------- [1:0 13:1 32 7] [11] 0 0
r 16.108510656 _7_ RTR  --- 45 cbr 532 [13a 7 1 800] ------- [1:0 13:1 32 7] [11] 1 0
SFf 16.108510656 _7_ 45 [1 -> 13] 1 to 13
f 16.108510656 _7_ RTR  --- 45 cbr 532 [13a 7 1 800] ------- [1:0 13:1 31 13] [11] 1 0
r 16.114604656 _13_ RTR  --- 45 cbr 532 [13a d 7 800] ------- [1:0 13:1 31 13] [11] 2 0
r 16.114604656 _13_ AGT  --- 45 cbr 512 [13a d 7 800] ------- [1:0 13:1 31 13] [11] 2 0
s 16.155011312 _13_ AGT  --- 46 cbr 512 [0 0 0 0] ------- [13:2 7:0 32 0] [10] 0 0
r 16.155011312 _13_ RTR  --- 46 cbr 512 [0 0 0 0] ------- [13:2 7:0 32 0] [10] 0 0
SFs 16.155011312 _13_ 46 [13 -> 7] 1(0) to 7 
s 16.155011312 _13_ RTR  --- 46 cbr 532 [0 0 0 0] ------- [13:2 7:0 32 7] [10] 0 0
r 16.160941312 _7_ RTR  --- 46 cbr 532 [13a 7 d 800] ------- [13:2 7:0 32 7] [10] 1 0
r 16.160941312 _7_ AGT  --- 46 cbr 512 [13a 7 d 800] ------- [13:2 7:0 32 7] [10] 1 0
s 16.175767522 _0_ AGT  --- 47 cbr 512 [0 0 0 0] ------- [0:0 13:0 32 0] [12] 0 0
r 16.175767522 _0_ RTR  --- 47 cbr 512 [0 0 0 0] ------- [0:0 13:0 32 0] [12] 0 0
SFs 16.175767522 _0_ 47 [0 -> 13] 1(0) to 6 
s 16.175767522 _0_ RTR  --- 47 cbr 532 [0 0 0 0] ------- [0:0 13:0 32 6] [12] 0 0
r 16.181657522 _6_ RTR  --- 47 cbr 532 [13a 6 0 800] ------- [0:0 13:0 32 6] [12] 1 0
SFf 16.181657522 _6_ 47 [0 -> 13] 1 to 7
f 16.181657522 _6_ RTR  --- 47 cbr 532 [13a 6 0 800] ------- [0:0 13:0 31 7] [12] 1 0
r 16.187891522 _7_ RTR  --- 47 cbr 532 [13a 7 6 800] ------- [0:0 13:0 31 7] [12] 2 0
SFf 16.187891522 _7_ 47 [0 -> 13] 1 to 13
f 16.187891522 _7_ RTR  --- 47 cbr 532 [13a 7 6 800] ------- [0:0 13:0 30 13] [12] 2 0
r 16.194045522 _13_ RTR  --- 47 cbr 532 [13a d 7 800] ------- [0:0 13:0 30 13] [12] 3 0
r 16.194045522 _13_ AGT  --- 47 cbr 512 [13a d 7 800] ------- [0:0 13:0 30 13] [12] 3 0
s 16.248885220 _1_ AGT  --- 48 cbr 512 [0 0 0 0] ------- [1:0 13:1 32 0] [12] 0 0
r 16.248885220 _1_ RTR  --- 48 cbr 512 [0 0 0 0] ------- [1:0 13:1 32 0] [12] 0 0
SFs 16.248885220 _1_ 48 [1 -> 13] 1(0) to 7 
s 16.248885220 _1_ RTR  --- 48 cbr 532 [0 0 0 0] ------- [1:0 13:1 32 7] [12] 0 0
r 16.254655220 _7_ RTR  --- 48 cbr 532 [13a 7 1 800] ------- [1:0 13:1 32 7] [12] 1 0
SFf 16.254655220 _7_ 48 [1 -> 13] 1 to 13
f 16.254655220 _7_ RTR  --- 48 cbr 532 [13a 7 1 800] ------- [1:0 13:1 31 13] [12] 1 0
s 16.257152456 _0_ AGT  --- 49 cbr 512 [0 0 0 0] ------- [0:0 13:0 32 0] [13] 0 0
r 16.257152456 _0_ RTR  --- 49 cbr 512 [0 0 0 0] ------- [0:0 13:0 32 0] [13] 0 0