n -t * -s 0  -x 100 -y 0 -Z 0 -z 30  -v circle -c black
n -t * -s 1  -x 300 -y 0 -Z 0 -z 30  -v circle -c black
n -t * -s 2  -x 500 -y 0 -Z 0 -z 30  -v circle -c black
n -t * -s 3  -x 100 -y 100 -Z 0 -z 30  -v circle -c black
n -t * -s 4  -x 300 -y 100 -Z 0 -z 30  -v circle -c black
n -t * -s 5  -x 500 -y 100 -Z 0 -z 30  -v circle -c black
n -t * -s 6  -x 100 -y 200 -Z 0 -z 30  -v circle -c black
n -t * -s 7  -x 300 -y 200 -Z 0 -z 30  -v circle -c black
n -t * -s 8  -x 500 -y 200 -Z 0 -z 30  -v circle -c black
n -t * -s 9  -x 100 -y 300 -Z 0 -z 30  -v circle -c black
n -t * -s 10  -x 300 -y 300 -Z 0 -z 30  -v circle -c black
n -t * -s 11  -x 500 -y 300 -Z 0 -z 30  -v circle -c black
n -t * -s 12  -x 100 -y 400 -Z 0 -z 30  -v circle -c black
n -t * -s 13  -x 300 -y 400 -Z 0 -z 30  -v circle -c black
n -t * -s 14  -x 500 -y 400 -Z 0 -z 30  -v circle -c black
n -t * -s 15  -x 100 -y 500 -Z 0 -z 30  -v circle -c black
n -t * -s 16  -x 300 -y 500 -Z 0 -z 30  -v circle -c black
n -t * -s 17  -x 500 -y 500 -Z 0 -z 30  -v circle -c black
V -t * -v 1.0a5 -a 0
W -t * -x 500 -y 500
A -t * -n 1 -p 0 -o 0xffffffff -c 31 -a 1
A -t * -h 1 -m 2147483647 -s 0
+ -t 15.000000000 -s 0 -d -1 -p cbr -e 512 -c 2 -a 0 -i 0 -k AGT 
- -t 15.000000000 -s 0 -d -1 -p cbr -e 512 -c 2 -a 0 -i 0 -k AGT
h -t 15.000000000 -s 0 -d -1 -p cbr -e 512 -c 2 -a 0 -i 0 -k AGT
+ -t 15.000000000 -s 1 -d -1 -p cbr -e 512 -c 2 -a 0 -i 2 -k AGT 
- -t 15.000000000 -s 1 -d -1 -p cbr -e 512 -c 2 -a 0 -i 2 -k AGT
h -t 15.000000000 -s 1 -d -1 -p cbr -e 512 -c 2 -a 0 -i 2 -k AGT
+ -t 15.000000000 -s 13 -d -1 -p cbr -e 512 -c 2 -a 0 -i 4 -k AGT 
- -t 15.000000000 -s 13 -d -1 -p cbr -e 512 -c 2 -a 0 -i 4 -k AGT
h -t 15.000000000 -s 13 -d -1 -p cbr -e 512 -c 2 -a 0 -i 4 -k AGT
+ -t 15.000994867 -s 13 -d -1 -p DSR -e 32 -c 2 -a 0 -i 5 -k RTR 
- -t 15.000994867 -s 13 -d -1 -p DSR -e 32 -c 2 -a 0 -i 5 -k RTR
h -t 15.000994867 -s 13 -d -1 -p DSR -e 32 -c 2 -a 0 -i 5 -k RTR
+ -t 15.003906122 -s 7 -d 13 -p DSR -e 44 -c 2 -a 0 -i 6 -k RTR 
- -t 15.003906122 -s 7 -d 13 -p DSR -e 44 -c 2 -a 0 -i 6 -k RTR
h -t 15.003906122 -s 7 -d 13 -p DSR -e 44 -c 2 -a 0 -i 6 -k RTR
+ -t 15.005832122 -s 13 -d 7 -p cbr -e 548 -c 2 -a 0 -i 4 -k RTR 
- -t 15.005832122 -s 13 -d 7 -p cbr -e 548 -c 2 -a 0 -i 4 -k RTR
h -t 15.005832122 -s 13 -d 7 -p cbr -e 548 -c 2 -a 0 -i 4 -k RTR
+ -t 15.006276701 -s 1 -d -1 -p DSR -e 32 -c 2 -a 0 -i 3 -k RTR 
- -t 15.006276701 -s 1 -d -1 -p DSR -e 32 -c 2 -a 0 -i 3 -k RTR
h -t 15.006276701 -s 1 -d -1 -p DSR -e 32 -c 2 -a 0 -i 3 -k RTR
+ -t 15.007183001 -s 0 -d -1 -p DSR -e 32 -c 2 -a 0 -i 1 -k RTR 
- -t 15.007183001 -s 0 -d -1 -p DSR -e 32 -c 2 -a 0 -i 1 -k RTR
h -t 15.007183001 -s 0 -d -1 -p DSR -e 32 -c 2 -a 0 -i 1 -k RTR
r -t 15.011834122 -s 7 -d 7 -p cbr -e 512 -c 2 -a 0 -i 4 -k AGT
+ -t 15.012981122 -s 4 -d 1 -p DSR -e 52 -c 2 -a 0 -i 7 -k RTR 
- -t 15.012981122 -s 4 -d 1 -p DSR -e 52 -c 2 -a 0 -i 7 -k RTR
h -t 15.012981122 -s 4 -d 1 -p DSR -e 52 -c 2 -a 0 -i 7 -k RTR
+ -t 15.012981455 -s 7 -d 1 -p DSR -e 48 -c 2 -a 0 -i 8 -k RTR 
- -t 15.012981455 -s 7 -d 1 -p DSR -e 48 -c 2 -a 0 -i 8 -k RTR
h -t 15.012981455 -s 7 -d 1 -p DSR -e 48 -c 2 -a 0 -i 8 -k RTR
+ -t 15.012981534 -s 3 -d 1 -p DSR -e 52 -c 2 -a 0 -i 9 -k RTR 
- -t 15.012981534 -s 3 -d 1 -p DSR -e 52 -c 2 -a 0 -i 9 -k RTR
h -t 15.012981534 -s 3 -d 1 -p DSR -e 52 -c 2 -a 0 -i 9 -k RTR
+ -t 15.012981534 -s 5 -d 1 -p DSR -e 52 -c 2 -a 0 -i 10 -k RTR 
- -t 15.012981534 -s 5 -d 1 -p DSR -e 52 -c 2 -a 0 -i 10 -k RTR
h -t 15.012981534 -s 5 -d 1 -p DSR -e 52 -c 2 -a 0 -i 10 -k RTR
+ -t 15.014569455 -s 1 -d 7 -p cbr -e 552 -c 2 -a 0 -i 2 -k RTR 
- -t 15.014569455 -s 1 -d 7 -p cbr -e 552 -c 2 -a 0 -i 2 -k RTR
h -t 15.014569455 -s 1 -d 7 -p cbr -e 552 -c 2 -a 0 -i 2 -k RTR
+ -t 15.022376789 -s 7 -d 13 -p cbr -e 552 -c 2 -a 0 -i 2 -k RTR 
- -t 15.022376789 -s 7 -d 13 -p cbr -e 552 -c 2 -a 0 -i 2 -k RTR
h -t 15.022376789 -s 7 -d 13 -p cbr -e 552 -c 2 -a 0 -i 2 -k RTR
+ -t 15.025588770 -s 3 -d 0 -p DSR -e 52 -c 2 -a 0 -i 11 -k RTR 
- -t 15.025588770 -s 3 -d 0 -p DSR -e 52 -c 2 -a 0 -i 11 -k RTR
h -t 15.025588770 -s 3 -d 0 -p DSR -e 52 -c 2 -a 0 -i 11 -k RTR
+ -t 15.025589103 -s 6 -d 0 -p DSR -e 52 -c 2 -a 0 -i 12 -k RTR 
- -t 15.025589103 -s 6 -d 0 -p DSR -e 52 -c 2 -a 0 -i 12 -k RTR
h -t 15.025589103 -s 6 -d 0 -p DSR -e 52 -c 2 -a 0 -i 12 -k RTR
+ -t 15.025589103 -s 1 -d 0 -p DSR -e 52 -c 2 -a 0 -i 13 -k RTR 
- -t 15.025589103 -s 1 -d 0 -p DSR -e 52 -c 2 -a 0 -i 13 -k RTR
h -t 15.025589103 -s 1 -d 0 -p DSR -e 52 -c 2 -a 0 -i 13 -k RTR
+ -t 15.025589182 -s 4 -d 0 -p DSR -e 52 -c 2 -a 0 -i 14 -k RTR 
- -t 15.025589182 -s 4 -d 0 -p DSR -e 52 -c 2 -a 0 -i 14 -k RTR
h -t 15.025589182 -s 4 -d 0 -p DSR -e 52 -c 2 -a 0 -i 14 -k RTR
+ -t 15.027499103 -s 0 -d 6 -p cbr -e 556 -c 2 -a 0 -i 0 -k RTR 
- -t 15.027499103 -s 0 -d 6 -p cbr -e 556 -c 2 -a 0 -i 0 -k RTR
h -t 15.027499103 -s 0 -d 6 -p cbr -e 556 -c 2 -a 0 -i 0 -k RTR
+ -t 15.033525103 -s 6 -d 7 -p cbr -e 556 -c 2 -a 0 -i 0 -k RTR 
- -t 15.033525103 -s 6 -d 7 -p cbr -e 556 -c 2 -a 0 -i 0 -k RTR
h -t 15.033525103 -s 6 -d 7 -p cbr -e 556 -c 2 -a 0 -i 0 -k RTR
+ -t 15.039431103 -s 7 -d 13 -p cbr -e 556 -c 2 -a 0 -i 0 -k RTR 
- -t 15.039431103 -s 7 -d 13 -p cbr -e 556 -c 2 -a 0 -i 0 -k RTR
h -t 15.039431103 -s 7 -d 13 -p cbr -e 556 -c 2 -a 0 -i 0 -k RTR
r -t 15.048167006 -s 13 -d 13 -p cbr -e 512 -c 2 -a 0 -i 2 -k AGT
r -t 15.054373673 -s 13 -d 13 -p cbr -e 512 -c 2 -a 0 -i 0 -k AGT
+ -t 15.071374406 -s 0 -d -1 -p cbr -e 512 -c 2 -a 0 -i 15 -k AGT 
- -t 15.071374406 -s 0 -d -1 -p cbr -e 512 -c 2 -a 0 -i 15 -k AGT
h -t 15.071374406 -s 0 -d -1 -p cbr -e 512 -c 2 -a 0 -i 15 -k AGT
+ -t 15.071374406 -s 0 -d 6 -p cbr -e 556 -c 2 -a 0 -i 15 -k RTR 
- -t 15.071374406 -s 0 -d 6 -p cbr -e 556 -c 2 -a 0 -i 15 -k RTR
h -t 15.071374406 -s 0 -d 6 -p cbr -e 556 -c 2 -a 0 -i 15 -k RTR
+ -t 15.077236406 -s 6 -d 7 -p cbr -e 556 -c 2 -a 0 -i 15 -k RTR 
- -t 15.077236406 -s 6 -d 7 -p cbr -e 556 -c 2 -a 0 -i 15 -k RTR
h -t 15.077236406 -s 6 -d 7 -p cbr -e 556 -c 2 -a 0 -i 15 -k RTR
+ -t 15.083302406 -s 7 -d 13 -p cbr -e 556 -c 2 -a 0 -i 15 -k RTR 
- -t 15.083302406 -s 7 -d 13 -p cbr -e 556 -c 2 -a 0 -i 15 -k RTR
h -t 15.083302406 -s 7 -d 13 -p cbr -e 556 -c 2 -a 0 -i 15 -k RTR
r -t 15.089448406 -s 13 -d 13 -p cbr -e 512 -c 2 -a 0 -i 15 -k AGT
+ -t 15.100472116 -s 1 -d -1 -p cbr -e 512 -c 2 -a 0 -i 16 -k AGT 
- -t 15.100472116 -s 1 -d -1 -p cbr -e 512 -c 2 -a 0 -i 16 -k AGT
h -t 15.100472116 -s 1 -d -1 -p cbr -e 512 -c 2 -a 0 -i 16 -k AGT
+ -t 15.100472116 -s 1 -d 7 -p cbr -e 552 -c 2 -a 0 -i 16 -k RTR 
- -t 15.100472116 -s 1 -d 7 -p cbr -e 552 -c 2 -a 0 -i 16 -k RTR
h -t 15.100472116 -s 1 -d 7 -p cbr -e 552 -c 2 -a 0 -i 16 -k RTR
+ -t 15.106140563 -s 13 -d -1 -p cbr -e 512 -c 2 -a 0 -i 17 -k AGT 
- -t 15.106140563 -s 13 -d -1 -p cbr -e 512 -c 2 -a 0 -i 17 -k AGT
h -t 15.106140563 -s 13 -d -1 -p cbr -e 512 -c 2 -a 0 -i 17 -k AGT
+ -t 15.106140563 -s 13 -d 7 -p cbr -e 548 -c 2 -a 0 -i 17 -k RTR 
- -t 15.106140563 -s 13 -d 7 -p cbr -e 548 -c 2 -a 0 -i 17 -k RTR
h -t 15.106140563 -s 13 -d 7 -p cbr -e 548 -c 2 -a 0 -i 17 -k RTR
+ -t 15.106482116 -s 7 -d 13 -p cbr -e 552 -c 2 -a 0 -i 16 -k RTR 
- -t 15.106482116 -s 7 -d 13 -p cbr -e 552 -c 2 -a 0 -i 16 -k RTR
h -t 15.106482116 -s 7 -d 13 -p cbr -e 552 -c 2 -a 0 -i 16 -k RTR
r -t 15.112756116 -s 13 -d 13 -p cbr -e 512 -c 2 -a 0 -i 16 -k AGT
r -t 15.118818116 -s 7 -d 7 -p cbr -e 512 -c 2 -a 0 -i 17 -k AGT
+ -t 15.126952645 -s 0 -d -1 -p cbr -e 512 -c 2 -a 0 -i 18 -k AGT 
- -t 15.126952645 -s 0 -d -1 -p cbr -e 512 -c 2 -a 0 -i 18 -k AGT
h -t 15.126952645 -s 0 -d -1 -p cbr -e 512 -c 2 -a 0 -i 18 -k AGT
+ -t 15.126952645 -s 0 -d 6 -p cbr -e 556 -c 2 -a 0 -i 18 -k RTR 
- -t 15.126952645 -s 0 -d 6 -p cbr -e 556 -c 2 -a 0 -i 18 -k RTR
h -t 15.126952645 -s 0 -d 6 -p cbr -e 556 -c 2 -a 0 -i 18 -k RTR
+ -t 15.133014645 -s 6 -d 7 -p cbr -e 556 -c 2 -a 0 -i 18 -k RTR 
- -t 15.133014645 -s 6 -d 7 -p cbr -e 556 -c 2 -a 0 -i 18 -k RTR
h -t 15.133014645 -s 6 -d 7 -p cbr -e 556 -c 2 -a 0 -i 18 -k RTR
+ -t 15.139500645 -s 7 -d 13 -p cbr -e 556 -c 2 -a 0 -i 18 -k RTR 
- -t 15.139500645 -s 7 -d 13 -p cbr -e 556 -c 2 -a 0 -i 18 -k RTR
h -t 15.139500645 -s 7 -d 13 -p cbr -e 556 -c 2 -a 0 -i 18 -k RTR
r -t 15.145426645 -s 13 -d 13 -p cbr -e 512 -c 2 -a 0 -i 18 -k AGT
+ -t 15.194873081 -s 13 -d -1 -p cbr -e 512 -c 2 -a 0 -i 19 -k AGT 
- -t 15.194873081 -s 13 -d -1 -p cbr -e 512 -c 2 -a 0 -i 19 -k AGT
h -t 15.194873081 -s 13 -d -1 -p cbr -e 512 -c 2 -a 0 -i 19 -k AGT
+ -t 15.194873081 -s 13 -d 7 -p cbr -e 548 -c 2 -a 0 -i 19 -k RTR 
- -t 15.194873081 -s 13 -d 7 -p cbr -e 548 -c 2 -a 0 -i 19 -k RTR
h -t 15.194873081 -s 13 -d 7 -p cbr -e 548 -c 2 -a 0 -i 19 -k RTR
r -t 15.200571081 -s 7 -d 7 -p cbr -e 512 -c 2 -a 0 -i 19 -k AGT
+ -t 15.225692377 -s 0 -d -1 -p cbr -e 512 -c 2 -a 0 -i 20 -k AGT 
- -t 15.225692377 -s 0 -d -1 -p cbr -e 512 -c 2 -a 0 -i 20 -k AGT
h -t 15.225692377 -s 0 -d -1 -p cbr -e 512 -c 2 -a 0 -i 20 -k AGT
+ -t 15.225692377 -s 0 -d 6 -p cbr -e 532 -c 2 -a 0 -i 20 -k RTR 
- -t 15.225692377 -s 0 -d 6 -p cbr -e 532 -c 2 -a 0 -i 20 -k RTR
h -t 15.225692377 -s 0 -d 6 -p cbr -e 532 -c 2 -a 0 -i 20 -k RTR
+ -t 15.231642377 -s 6 -d 7 -p cbr -e 532 -c 2 -a 0 -i 20 -k RTR 
- -t 15.231642377 -s 6 -d 7 -p cbr -e 532 -c 2 -a 0 -i 20 -k RTR
h -t 15.231642377 -s 6 -d 7 -p cbr -e 532 -c 2 -a 0 -i 20 -k RTR
+ -t 15.237856377 -s 7 -d 13 -p cbr -e 532 -c 2 -a 0 -i 20 -k RTR 
- -t 15.237856377 -s 7 -d 13 -p cbr -e 532 -c 2 -a 0 -i 20 -k RTR
h -t 15.237856377 -s 7 -d 13 -p cbr -e 532 -c 2 -a 0 -i 20 -k RTR
+ -t 15.239778941 -s 1 -d -1 -p cbr -e 512 -c 2 -a 0 -i 21 -k AGT 
- -t 15.239778941 -s 1 -d -1 -p cbr -e 512 -c 2 -a 0 -i 21 -k AGT
h -t 15.239778941 -s 1 -d -1 -p cbr -e 512 -c 2 -a 0 -i 21 -k AGT
+ -t 15.239778941 -s 1 -d 7 -p cbr -e 552 -c 2 -a 0 -i 21 -k RTR 
- -t 15.239778941 -s 1 -d 7 -p cbr -e 552 -c 2 -a 0 -i 21 -k RTR
h -t 15.239778941 -s 1 -d 7 -p cbr -e 552 -c 2 -a 0 -i 21 -k RTR
r -t 15.244130377 -s 13 -d 13 -p cbr -e 512 -c 2 -a 0 -i 20 -k AGT
+ -t 15.250849711 -s 7 -d 13 -p cbr -e 552 -c 2 -a 0 -i 21 -k RTR 
- -t 15.250849711 -s 7 -d 13 -p cbr -e 552 -c 2 -a 0 -i 21 -k RTR
h -t 15.250849711 -s 7 -d 13 -p cbr -e 552 -c 2 -a 0 -i 21 -k RTR
r -t 15.257243711 -s 13 -d 13 -p cbr -e 512 -c 2 -a 0 -i 21 -k AGT
+ -t 15.312570809 -s 13 -d -1 -p cbr -e 512 -c 2 -a 0 -i 22 -k AGT 
- -t 15.312570809 -s 13 -d -1 -p cbr -e 512 -c 2 -a 0 -i 22 -k AGT
h -t 15.312570809 -s 13 -d -1 -p cbr -e 512 -c 2 -a 0 -i 22 -k AGT
+ -t 15.312570809 -s 13 -d 7 -p cbr -e 532 -c 2 -a 0 -i 22 -k RTR 
- -t 15.312570809 -s 13 -d 7 -p cbr -e 532 -c 2 -a 0 -i 22 -k RTR
h -t 15.312570809 -s 13 -d 7 -p cbr -e 532 -c 2 -a 0 -i 22 -k RTR
r -t 15.318580809 -s 7 -d 7 -p cbr -e 512 -c 2 -a 0 -i 22 -k AGT
+ -t 15.345135039 -s 0 -d -1 -p cbr -e 512 -c 2 -a 0 -i 23 -k AGT 
- -t 15.345135039 -s 0 -d -1 -p cbr -e 512 -c 2 -a 0 -i 23 -k AGT
h -t 15.345135039 -s 0 -d -1 -p cbr -e 512 -c 2 -a 0 -i 23 -k AGT
+ -t 15.345135039 -s 0 -d 6 -p cbr -e 532 -c 2 -a 0 -i 23 -k RTR 
- -t 15.345135039 -s 0 -d 6 -p cbr -e 532 -c 2 -a 0 -i 23 -k RTR
h -t 15.345135039 -s 0 -d 6 -p cbr -e 532 -c 2 -a 0 -i 23 -k RTR
+ -t 15.350865039 -s 6 -d 7 -p cbr -e 532 -c 2 -a 0 -i 23 -k RTR 
- -t 15.350865039 -s 6 -d 7 -p cbr -e 532 -c 2 -a 0 -i 23 -k RTR
h -t 15.350865039 -s 6 -d 7 -p cbr -e 532 -c 2 -a 0 -i 23 -k RTR
+ -t 15.356979039 -s 7 -d 13 -p cbr -e 532 -c 2 -a 0 -i 23 -k RTR 
- -t 15.356979039 -s 7 -d 13 -p cbr -e 532 -c 2 -a 0 -i 23 -k RTR
h -t 15.356979039 -s 7 -d 13 -p cbr -e 532 -c 2 -a 0 -i 23 -k RTR
r -t 15.362833039 -s 13 -d 13 -p cbr -e 512 -c 2 -a 0 -i 23 -k AGT
+ -t 15.364468467 -s 1 -d -1 -p cbr -e 512 -c 2 -a 0 -i 24 -k AGT 
- -t 15.364468467 -s 1 -d -1 -p cbr -e 512 -c 2 -a 0 -i 24 -k AGT
h -t 15.364468467 -s 1 -d -1 -p cbr -e 512 -c 2 -a 0 -i 24 -k AGT
+ -t 15.364468467 -s 1 -d 7 -p cbr -e 532 -c 2 -a 0 -i 24 -k RTR 
- -t 15.364468467 -s 1 -d 7 -p cbr -e 532 -c 2 -a 0 -i 24 -k RTR
h -t 15.364468467 -s 1 -d 7 -p cbr -e 532 -c 2 -a 0 -i 24 -k RTR
+ -t 15.370278467 -s 7 -d 13 -p cbr -e 532 -c 2 -a 0 -i 24 -k RTR 
- -t 15.370278467 -s 7 -d 13 -p cbr -e 532 -c 2 -a 0 -i 24 -k RTR
h -t 15.370278467 -s 7 -d 13 -p cbr -e 532 -c 2 -a 0 -i 24 -k RTR
r -t 15.376192467 -s 13 -d 13 -p cbr -e 512 -c 2 -a 0 -i 24 -k AGT
+ -t 15.436246366 -s 13 -d -1 -p cbr -e 512 -c 2 -a 0 -i 25 -k AGT 
- -t 15.436246366 -s 13 -d -1 -p cbr -e 512 -c 2 -a 0 -i 25 -k AGT
h -t 15.436246366 -s 13 -d -1 -p cbr -e 512 -c 2 -a 0 -i 25 -k AGT
+ -t 15.436246366 -s 13 -d 7 -p cbr -e 532 -c 2 -a 0 -i 25 -k RTR 
- -t 15.436246366 -s 13 -d 7 -p cbr -e 532 -c 2 -a 0 -i 25 -k RTR
h -t 15.436246366 -s 13 -d 7 -p cbr -e 532 -c 2 -a 0 -i 25 -k RTR
r -t 15.442236366 -s 7 -d 7 -p cbr -e 512 -c 2 -a 0 -i 25 -k AGT
+ -t 15.444948134 -s 1 -d -1 -p cbr -e 512 -c 2 -a 0 -i 26 -k AGT 
- -t 15.444948134 -s 1 -d -1 -p cbr -e 512 -c 2 -a 0 -i 26 -k AGT
h -t 15.444948134 -s 1 -d -1 -p cbr -e 512 -c 2 -a 0 -i 26 -k AGT
+ -t 15.444948134 -s 1 -d 7 -p cbr -e 532 -c 2 -a 0 -i 26 -k RTR 
- -t 15.444948134 -s 1 -d 7 -p cbr -e 532 -c 2 -a 0 -i 26 -k RTR
h -t 15.444948134 -s 1 -d 7 -p cbr -e 532 -c 2 -a 0 -i 26 -k RTR
+ -t 15.450818134 -s 7 -d 13 -p cbr -e 532 -c 2 -a 0 -i 26 -k RTR 
- -t 15.450818134 -s 7 -d 13 -p cbr -e 532 -c 2 -a 0 -i 26 -k RTR
h -t 15.450818134 -s 7 -d 13 -p cbr -e 532 -c 2 -a 0 -i 26 -k RTR
r -t 15.456852134 -s 13 -d 13 -p cbr -e 512 -c 2 -a 0 -i 26 -k AGT
+ -t 15.464860452 -s 0 -d -1 -p cbr -e 512 -c 2 -a 0 -i 27 -k AGT 
- -t 15.464860452 -s 0 -d -1 -p cbr -e 512 -c 2 -a 0 -i 27 -k AGT
h -t 15.464860452 -s 0 -d -1 -p cbr -e 512 -c 2 -a 0 -i 27 -k AGT
+ -t 15.464860452 -s 0 -d 6 -p cbr -e 532 -c 2 -a 0 -i 27 -k RTR 
- -t 15.464860452 -s 0 -d 6 -p cbr -e 532 -c 2 -a 0 -i 27 -k RTR
h -t 15.464860452 -s 0 -d 6 -p cbr -e 532 -c 2 -a 0 -i 27 -k RTR
+ -t 15.470370452 -s 6 -d 7 -p cbr -e 532 -c 2 -a 0 -i 27 -k RTR 
- -t 15.470370452 -s 6 -d 7 -p cbr -e 532 -c 2 -a 0 -i 27 -k RTR
h -t 15.470370452 -s 6 -d 7 -p cbr -e 532 -c 2 -a 0 -i 27 -k RTR
+ -t 15.476084452 -s 7 -d 13 -p cbr -e 532 -c 2 -a 0 -i 27 -k RTR 
- -t 15.476084452 -s 7 -d 13 -p cbr -e 532 -c 2 -a 0 -i 27 -k RTR
h -t 15.476084452 -s 7 -d 13 -p cbr -e 532 -c 2 -a 0 -i 27 -k RTR
r -t 15.481878452 -s 13 -d 13 -p cbr -e 512 -c 2 -a 0 -i 27 -k AGT
+ -t 15.514101393 -s 13 -d -1 -p cbr -e 512 -c 2 -a 0 -i 28 -k AGT 
- -t 15.514101393 -s 13 -d -1 -p cbr -e 512 -c 2 -a 0 -i 28 -k AGT
h -t 15.514101393 -s 13 -d -1 -p cbr -e 512 -c 2 -a 0 -i 28 -k AGT
+ -t 15.514101393 -s 13 -d 7 -p cbr -e 532 -c 2 -a 0 -i 28 -k RTR 
- -t 15.514101393 -s 13 -d 7 -p cbr -e 532 -c 2 -a 0 -i 28 -k RTR
h -t 15.514101393 -s 13 -d 7 -p cbr -e 532 -c 2 -a 0 -i 28 -k RTR
+ -t 15.517344175 -s 0 -d -1 -p cbr -e 512 -c 2 -a 0 -i 29 -k AGT 
- -t 15.517344175 -s 0 -d -1 -p cbr -e 512 -c 2 -a 0 -i 29 -k AGT
h -t 15.517344175 -s 0 -d -1 -p cbr -e 512 -c 2 -a 0 -i 29 -k AGT
+ -t 15.517344175 -s 0 -d 6 -p cbr -e 532 -c 2 -a 0 -i 29 -k RTR 
- -t 15.517344175 -s 0 -d 6 -p cbr -e 532 -c 2 -a 0 -i 29 -k RTR
h -t 15.517344175 -s 0 -d 6 -p cbr -e 532 -c 2 -a 0 -i 29 -k RTR
r -t 15.519831393 -s 7 -d 7 -p cbr -e 512 -c 2 -a 0 -i 28 -k AGT
+ -t 15.526070336 -s 6 -d 7 -p cbr -e 532 -c 2 -a 0 -i 29 -k RTR 
- -t 15.526070336 -s 6 -d 7 -p cbr -e 532 -c 2 -a 0 -i 29 -k RTR
h -t 15.526070336 -s 6 -d 7 -p cbr -e 532 -c 2 -a 0 -i 29 -k RTR
+ -t 15.531864336 -s 7 -d 13 -p cbr -e 532 -c 2 -a 0 -i 29 -k RTR 
- -t 15.531864336 -s 7 -d 13 -p cbr -e 532 -c 2 -a 0 -i 29 -k RTR
h -t 15.531864336 -s 7 -d 13 -p cbr -e 532 -c 2 -a 0 -i 29 -k RTR
r -t 15.537638336 -s 13 -d 13 -p cbr -e 512 -c 2 -a 0 -i 29 -k AGT
+ -t 15.581776833 -s 1 -d -1 -p cbr -e 512 -c 2 -a 0 -i 30 -k AGT 
- -t 15.581776833 -s 1 -d -1 -p cbr -e 512 -c 2 -a 0 -i 30 -k AGT
h -t 15.581776833 -s 1 -d -1 -p cbr -e 512 -c 2 -a 0 -i 30 -k AGT
+ -t 15.581776833 -s 1 -d 7 -p cbr -e 532 -c 2 -a 0 -i 30 -k RTR 
- -t 15.581776833 -s 1 -d 7 -p cbr -e 532 -c 2 -a 0 -i 30 -k RTR
h -t 15.581776833 -s 1 -d 7 -p cbr -e 532 -c 2 -a 0 -i 30 -k RTR
+ -t 15.587626833 -s 7 -d 13 -p cbr -e 532 -c 2 -a 0 -i 30 -k RTR 
- -t 15.587626833 -s 7 -d 13 -p cbr -e 532 -c 2 -a 0 -i 30 -k RTR
h -t 15.587626833 -s 7 -d 13 -p cbr -e 532 -c 2 -a 0 -i 30 -k RTR
r -t 15.593860833 -s 13 -d 13 -p cbr -e 512 -c 2 -a 0 -i 30 -k AGT
+ -t 15.649012850 -s 1 -d -1 -p cbr -e 512 -c 2 -a 0 -i 31 -k AGT 
- -t 15.649012850 -s 1 -d -1 -p cbr -e 512 -c 2 -a 0 -i 31 -k AGT
h -t 15.649012850 -s 1 -d -1 -p cbr -e 512 -c 2 -a 0 -i 31 -k AGT
+ -t 15.649012850 -s 1 -d 7 -p cbr -e 532 -c 2 -a 0 -i 31 -k RTR 
- -t 15.649012850 -s 1 -d 7 -p cbr -e 532 -c 2 -a 0 -i 31 -k RTR
h -t 15.649012850 -s 1 -d 7 -p cbr -e 532 -c 2 -a 0 -i 31 -k RTR
+ -t 15.654722850 -s 7 -d 13 -p cbr -e 532 -c 2 -a 0 -i 31 -k RTR 
- -t 15.654722850 -s 7 -d 13 -p cbr -e 532 -c 2 -a 0 -i 31 -k RTR
h -t 15.654722850 -s 7 -d 13 -p cbr -e 532 -c 2 -a 0 -i 31 -k RTR
+ -t 15.658628924 -s 13 -d -1 -p cbr -e 512 -c 2 -a 0 -i 32 -k AGT 
- -t 15.658628924 -s 13 -d -1 -p cbr -e 512 -c 2 -a 0 -i 32 -k AGT
h -t 15.658628924 -s 13 -d -1 -p cbr -e 512 -c 2 -a 0 -i 32 -k AGT
+ -t 15.658628924 -s 13 -d 7 -p cbr -e 532 -c 2 -a 0 -i 32 -k RTR 
- -t 15.658628924 -s 13 -d 7 -p cbr -e 532 -c 2 -a 0 -i 32 -k RTR
h -t 15.658628924 -s 13 -d 7 -p cbr -e 532 -c 2 -a 0 -i 32 -k RTR
+ -t 15.659807673 -s 0 -d -1 -p cbr -e 512 -c 2 -a 0 -i 33 -k AGT 
- -t 15.659807673 -s 0 -d -1 -p cbr -e 512 -c 2 -a 0 -i 33 -k AGT
h -t 15.659807673 -s 0 -d -1 -p cbr -e 512 -c 2 -a 0 -i 33 -k AGT
+ -t 15.659807673 -s 0 -d 6 -p cbr -e 532 -c 2 -a 0 -i 33 -k RTR 
- -t 15.659807673 -s 0 -d 6 -p cbr -e 532 -c 2 -a 0 -i 33 -k RTR
h -t 15.659807673 -s 0 -d 6 -p cbr -e 532 -c 2 -a 0 -i 33 -k RTR
r -t 15.660596850 -s 13 -d 13 -p cbr -e 512 -c 2 -a 0 -i 31 -k AGT
r -t 15.666630850 -s 7 -d 7 -p cbr -e 512 -c 2 -a 0 -i 32 -k AGT
+ -t 15.672989792 -s 6 -d 7 -p cbr -e 532 -c 2 -a 0 -i 33 -k RTR 
- -t 15.672989792 -s 6 -d 7 -p cbr -e 532 -c 2 -a 0 -i 33 -k RTR
h -t 15.672989792 -s 6 -d 7 -p cbr -e 532 -c 2 -a 0 -i 33 -k RTR
+ -t 15.679103792 -s 7 -d 13 -p cbr -e 532 -c 2 -a 0 -i 33 -k RTR 
- -t 15.679103792 -s 7 -d 13 -p cbr -e 532 -c 2 -a 0 -i 33 -k RTR
h -t 15.679103792 -s 7 -d 13 -p cbr -e 532 -c 2 -a 0 -i 33 -k RTR
r -t 15.685237792 -s 13 -d 13 -p cbr -e 512 -c 2 -a 0 -i 33 -k AGT
+ -t 15.716756805 -s 1 -d -1 -p cbr -e 512 -c 2 -a 0 -i 34 -k AGT 
- -t 15.716756805 -s 1 -d -1 -p cbr -e 512 -c 2 -a 0 -i 34 -k AGT
h -t 15.716756805 -s 1 -d -1 -p cbr -e 512 -c 2 -a 0 -i 34 -k AGT
+ -t 15.716756805 -s 1 -d 7 -p cbr -e 532 -c 2 -a 0 -i 34 -k RTR 
- -t 15.716756805 -s 1 -d 7 -p cbr -e 532 -c 2 -a 0 -i 34 -k RTR
h -t 15.716756805 -s 1 -d 7 -p cbr -e 532 -c 2 -a 0 -i 34 -k RTR
+ -t 15.722526805 -s 7 -d 13 -p cbr -e 532 -c 2 -a 0 -i 34 -k RTR 
- -t 15.722526805 -s 7 -d 13 -p cbr -e 532 -c 2 -a 0 -i 34 -k RTR
h -t 15.722526805 -s 7 -d 13 -p cbr -e 532 -c 2 -a 0 -i 34 -k RTR
r -t 15.728720805 -s 13 -d 13 -p cbr -e 512 -c 2 -a 0 -i 34 -k AGT
+ -t 15.736908907 -s 0 -d -1 -p cbr -e 512 -c 2 -a 0 -i 35 -k AGT 
- -t 15.736908907 -s 0 -d -1 -p cbr -e 512 -c 2 -a 0 -i 35 -k AGT
h -t 15.736908907 -s 0 -d -1 -p cbr -e 512 -c 2 -a 0 -i 35 -k AGT
+ -t 15.736908907 -s 0 -d 6 -p cbr -e 532 -c 2 -a 0 -i 35 -k RTR 
- -t 15.736908907 -s 0 -d 6 -p cbr -e 532 -c 2 -a 0 -i 35 -k RTR
h -t 15.736908907 -s 0 -d 6 -p cbr -e 532 -c 2 -a 0 -i 35 -k RTR
+ -t 15.742678907 -s 6 -d 7 -p cbr -e 532 -c 2 -a 0 -i 35 -k RTR 
- -t 15.742678907 -s 6 -d 7 -p cbr -e 532 -c 2 -a 0 -i 35 -k RTR
h -t 15.742678907 -s 6 -d 7 -p cbr -e 532 -c 2 -a 0 -i 35 -k RTR
+ -t 15.748992907 -s 7 -d 13 -p cbr -e 532 -c 2 -a 0 -i 35 -k RTR 
- -t 15.748992907 -s 7 -d 13 -p cbr -e 532 -c 2 -a 0 -i 35 -k RTR
h -t 15.748992907 -s 7 -d 13 -p cbr -e 532 -c 2 -a 0 -i 35 -k RTR
r -t 15.754786907 -s 13 -d 13 -p cbr -e 512 -c 2 -a 0 -i 35 -k AGT
+ -t 15.787802361 -s 1 -d -1 -p cbr -e 512 -c 2 -a 0 -i 36 -k AGT 
- -t 15.787802361 -s 1 -d -1 -p cbr -e 512 -c 2 -a 0 -i 36 -k AGT
h -t 15.787802361 -s 1 -d -1 -p cbr -e 512 -c 2 -a 0 -i 36 -k AGT
+ -t 15.787802361 -s 1 -d 7 -p cbr -e 532 -c 2 -a 0 -i 36 -k RTR 
- -t 15.787802361 -s 1 -d 7 -p cbr -e 532 -c 2 -a 0 -i 36 -k RTR
h -t 15.787802361 -s 1 -d 7 -p cbr -e 532 -c 2 -a 0 -i 36 -k RTR
+ -t 15.793672361 -s 7 -d 13 -p cbr -e 532 -c 2 -a 0 -i 36 -k RTR 
- -t 15.793672361 -s 7 -d 13 -p cbr -e 532 -c 2 -a 0 -i 36 -k RTR
h -t 15.793672361 -s 7 -d 13 -p cbr -e 532 -c 2 -a 0 -i 36 -k RTR
r -t 15.799386361 -s 13 -d 13 -p cbr -e 512 -c 2 -a 0 -i 36 -k AGT
+ -t 15.804810381 -s 13 -d -1 -p cbr -e 512 -c 2 -a 0 -i 37 -k AGT 
- -t 15.804810381 -s 13 -d -1 -p cbr -e 512 -c 2 -a 0 -i 37 -k AGT
h -t 15.804810381 -s 13 -d -1 -p cbr -e 512 -c 2 -a 0 -i 37 -k AGT
+ -t 15.804810381 -s 13 -d 7 -p cbr -e 532 -c 2 -a 0 -i 37 -k RTR 
- -t 15.804810381 -s 13 -d 7 -p cbr -e 532 -c 2 -a 0 -i 37 -k RTR
h -t 15.804810381 -s 13 -d 7 -p cbr -e 532 -c 2 -a 0 -i 37 -k RTR
r -t 15.810440381 -s 7 -d 7 -p cbr -e 512 -c 2 -a 0 -i 37 -k AGT
+ -t 15.845319239 -s 0 -d -1 -p cbr -e 512 -c 2 -a 0 -i 38 -k AGT 
- -t 15.845319239 -s 0 -d -1 -p cbr -e 512 -c 2 -a 0 -i 38 -k AGT
h -t 15.845319239 -s 0 -d -1 -p cbr -e 512 -c 2 -a 0 -i 38 -k AGT
+ -t 15.845319239 -s 0 -d 6 -p cbr -e 532 -c 2 -a 0 -i 38 -k RTR 
- -t 15.845319239 -s 0 -d 6 -p cbr -e 532 -c 2 -a 0 -i 38 -k RTR
h -t 15.845319239 -s 0 -d 6 -p cbr -e 532 -c 2 -a 0 -i 38 -k RTR
+ -t 15.851069239 -s 6 -d 7 -p cbr -e 532 -c 2 -a 0 -i 38 -k RTR 
- -t 15.851069239 -s 6 -d 7 -p cbr -e 532 -c 2 -a 0 -i 38 -k RTR
h -t 15.851069239 -s 6 -d 7 -p cbr -e 532 -c 2 -a 0 -i 38 -k RTR
+ -t 15.856943239 -s 7 -d 13 -p cbr -e 532 -c 2 -a 0 -i 38 -k RTR 
- -t 15.856943239 -s 7 -d 13 -p cbr -e 532 -c 2 -a 0 -i 38 -k RTR
h -t 15.856943239 -s 7 -d 13 -p cbr -e 532 -c 2 -a 0 -i 38 -k RTR
r -t 15.863237239 -s 13 -d 13 -p cbr -e 512 -c 2 -a 0 -i 38 -k AGT
+ -t 15.918403157 -s 1 -d -1 -p cbr -e 512 -c 2 -a 0 -i 39 -k AGT 
- -t 15.918403157 -s 1 -d -1 -p cbr -e 512 -c 2 -a 0 -i 39 -k AGT
h -t 15.918403157 -s 1 -d -1 -p cbr -e 512 -c 2 -a 0 -i 39 -k AGT
+ -t 15.918403157 -s 1 -d 7 -p cbr -e 532 -c 2 -a 0 -i 39 -k RTR 
- -t 15.918403157 -s 1 -d 7 -p cbr -e 532 -c 2 -a 0 -i 39 -k RTR
h -t 15.918403157 -s 1 -d 7 -p cbr -e 532 -c 2 -a 0 -i 39 -k RTR
+ -t 15.919181990 -s 13 -d -1 -p cbr -e 512 -c 2 -a 0 -i 40 -k AGT 
- -t 15.919181990 -s 13 -d -1 -p cbr -e 512 -c 2 -a 0 -i 40 -k AGT
h -t 15.919181990 -s 13 -d -1 -p cbr -e 512 -c 2 -a 0 -i 40 -k AGT
+ -t 15.919181990 -s 13 -d 7 -p cbr -e 532 -c 2 -a 0 -i 40 -k RTR 
- -t 15.919181990 -s 13 -d 7 -p cbr -e 532 -c 2 -a 0 -i 40 -k RTR
h -t 15.919181990 -s 13 -d 7 -p cbr -e 532 -c 2 -a 0 -i 40 -k RTR
+ -t 15.923973157 -s 7 -d 13 -p cbr -e 532 -c 2 -a 0 -i 39 -k RTR 
- -t 15.923973157 -s 7 -d 13 -p cbr -e 532 -c 2 -a 0 -i 39 -k RTR
h -t 15.923973157 -s 7 -d 13 -p cbr -e 532 -c 2 -a 0 -i 39 -k RTR
r -t 15.929957824 -s 7 -d 7 -p cbr -e 512 -c 2 -a 0 -i 40 -k AGT
r -t 15.935971824 -s 13 -d 13 -p cbr -e 512 -c 2 -a 0 -i 39 -k AGT
+ -t 15.981578599 -s 1 -d -1 -p cbr -e 512 -c 2 -a 0 -i 41 -k AGT 
- -t 15.981578599 -s 1 -d -1 -p cbr -e 512 -c 2 -a 0 -i 41 -k AGT
h -t 15.981578599 -s 1 -d -1 -p cbr -e 512 -c 2 -a 0 -i 41 -k AGT
+ -t 15.981578599 -s 1 -d 7 -p cbr -e 532 -c 2 -a 0 -i 41 -k RTR 
- -t 15.981578599 -s 1 -d 7 -p cbr -e 532 -c 2 -a 0 -i 41 -k RTR
h -t 15.981578599 -s 1 -d 7 -p cbr -e 532 -c 2 -a 0 -i 41 -k RTR
+ -t 15.987188599 -s 7 -d 13 -p cbr -e 532 -c 2 -a 0 -i 41 -k RTR 
- -t 15.987188599 -s 7 -d 13 -p cbr -e 532 -c 2 -a 0 -i 41 -k RTR
h -t 15.987188599 -s 7 -d 13 -p cbr -e 532 -c 2 -a 0 -i 41 -k RTR
r -t 15.993162599 -s 13 -d 13 -p cbr -e 512 -c 2 -a 0 -i 41 -k AGT
+ -t 15.994679370 -s 0 -d -1 -p cbr -e 512 -c 2 -a 0 -i 42 -k AGT 
- -t 15.994679370 -s 0 -d -1 -p cbr -e 512 -c 2 -a 0 -i 42 -k AGT
h -t 15.994679370 -s 0 -d -1 -p cbr -e 512 -c 2 -a 0 -i 42 -k AGT
+ -t 15.994679370 -s 0 -d 6 -p cbr -e 532 -c 2 -a 0 -i 42 -k RTR 
- -t 15.994679370 -s 0 -d 6 -p cbr -e 532 -c 2 -a 0 -i 42 -k RTR
h -t 15.994679370 -s 0 -d 6 -p cbr -e 532 -c 2 -a 0 -i 42 -k RTR
+ -t 16.000289370 -s 6 -d 7 -p cbr -e 532 -c 2 -a 0 -i 42 -k RTR 
- -t 16.000289370 -s 6 -d 7 -p cbr -e 532 -c 2 -a 0 -i 42 -k RTR
h -t 16.000289370 -s 6 -d 7 -p cbr -e 532 -c 2 -a 0 -i 42 -k RTR
+ -t 16.006003370 -s 7 -d 13 -p cbr -e 532 -c 2 -a 0 -i 42 -k RTR 
- -t 16.006003370 -s 7 -d 13 -p cbr -e 532 -c 2 -a 0 -i 42 -k RTR
h -t 16.006003370 -s 7 -d 13 -p cbr -e 532 -c 2 -a 0 -i 42 -k RTR
r -t 16.011817370 -s 13 -d 13 -p cbr -e 512 -c 2 -a 0 -i 42 -k AGT
+ -t 16.026817185 -s 13 -d -1 -p cbr -e 512 -c 2 -a 0 -i 43 -k AGT 
- -t 16.026817185 -s 13 -d -1 -p cbr -e 512 -c 2 -a 0 -i 43 -k AGT
h -t 16.026817185 -s 13 -d -1 -p cbr -e 512 -c 2 -a 0 -i 43 -k AGT
+ -t 16.026817185 -s 13 -d 7 -p cbr -e 532 -c 2 -a 0 -i 43 -k RTR 
- -t 16.026817185 -s 13 -d 7 -p cbr -e 532 -c 2 -a 0 -i 43 -k RTR
h -t 16.026817185 -s 13 -d 7 -p cbr -e 532 -c 2 -a 0 -i 43 -k RTR
r -t 16.032547185 -s 7 -d 7 -p cbr -e 512 -c 2 -a 0 -i 43 -k AGT
+ -t 16.065486729 -s 0 -d -1 -p cbr -e 512 -c 2 -a 0 -i 44 -k AGT 
- -t 16.065486729 -s 0 -d -1 -p cbr -e 512 -c 2 -a 0 -i 44 -k AGT
h -t 16.065486729 -s 0 -d -1 -p cbr -e 512 -c 2 -a 0 -i 44 -k AGT
+ -t 16.065486729 -s 0 -d 6 -p cbr -e 532 -c 2 -a 0 -i 44 -k RTR 
- -t 16.065486729 -s 0 -d 6 -p cbr -e 532 -c 2 -a 0 -i 44 -k RTR
h -t 16.065486729 -s 0 -d 6 -p cbr -e 532 -c 2 -a 0 -i 44 -k RTR
+ -t 16.071056729 -s 6 -d 7 -p cbr -e 532 -c 2 -a 0 -i 44 -k RTR 
- -t 16.071056729 -s 6 -d 7 -p cbr -e 532 -c 2 -a 0 -i 44 -k RTR
h -t 16.071056729 -s 6 -d 7 -p cbr -e 532 -c 2 -a 0 -i 44 -k RTR
+ -t 16.077250729 -s 7 -d 13 -p cbr -e 532 -c 2 -a 0 -i 44 -k RTR 
- -t 16.077250729 -s 7 -d 13 -p cbr -e 532 -c 2 -a 0 -i 44 -k RTR
h -t 16.077250729 -s 7 -d 13 -p cbr -e 532 -c 2 -a 0 -i 44 -k RTR
r -t 16.083124729 -s 13 -d 13 -p cbr -e 512 -c 2 -a 0 -i 44 -k AGT
+ -t 16.102640656 -s 1 -d -1 -p cbr -e 512 -c 2 -a 0 -i 45 -k AGT 
- -t 16.102640656 -s 1 -d -1 -p cbr -e 512 -c 2 -a 0 -i 45 -k AGT
h -t 16.102640656 -s 1 -d -1 -p cbr -e 512 -c 2 -a 0 -i 45 -k AGT
+ -t 16.102640656 -s 1 -d 7 -p cbr -e 532 -c 2 -a 0 -i 45 -k RTR 
- -t 16.102640656 -s 1 -d 7 -p cbr -e 532 -c 2 -a 0 -i 45 -k RTR
h -t 16.102640656 -s 1 -d 7 -p cbr -e 532 -c 2 -a 0 -i 45 -k RTR
+ -t 16.108510656 -s 7 -d 13 -p cbr -e 532 -c 2 -a 0 -i 45 -k RTR 
- -t 16.108510656 -s 7 -d 13 -p cbr -e 532 -c 2 -a 0 -i 45 -k RTR
h -t 16.108510656 -s 7 -d 13 -p cbr -e 532 -c 2 -a 0 -i 45 -k RTR
r -t 16.114604656 -s 13 -d 13 -p cbr -e 512 -c 2 -a 0 -i 45 -k AGT
+ -t 16.155011312 -s 13 -d -1 -p cbr -e 512 -c 2 -a 0 -i 46 -k AGT 
- -t 16.155011312 -s 13 -d -1 -p cbr -e 512 -c 2 -a 0 -i 46 -k AGT
h -t 16.155011312 -s 13 -d -1 -p cbr -e 512 -c 2 -a 0 -i 46 -k AGT
+ -t 16.155011312 -s 13 -d 7 -p cbr -e 532 -c 2 -a 0 -i 46 -k RTR 
- -t 16.155011312 -s 13 -d 7 -p cbr -e 532 -c 2 -a 0 -i 46 -k RTR
h -t 16.155011312 -s 13 -d 7 -p cbr -e 532 -c 2 -a 0 -i 46 -k RTR
r -t 16.160941312 -s 7 -d 7 -p cbr -e 512 -c 2 -a 0 -i 46 -k AGT
+ -t 16.175767522 -s 0 -d -1 -p cbr -e 512 -c 2 -a 0 -i 47 -k AGT 
- -t 16.175767522 -s 0 -d -1 -p cbr -e 512 -c 2 -a 0 -i 47 -k AGT
h -t 16.175767522 -s 0 -d -1 -p cbr -e 512 -c 2 -a 0 -i 47 -k AGT
+ -t 16.175767522 -s 0 -d 6 -p cbr -e 532 -c 2 -a 0 -i 47 -k RTR 
- -t 16.175767522 -s 0 -d 6 -p cbr -e 532 -c 2 -a 0 -i 47 -k RTR
h -t 16.175767522 -s 0 -d 6 -p cbr -e 532 -c 2 -a 0 -i 47 -k RTR
+ -t 16.181657522 -s 6 -d 7 -p cbr -e 532 -c 2 -a 0 -i 47 -k RTR 
- -t 16.181657522 -s 6 -d 7 -p cbr -e 532 -c 2 -a 0 -i 47 -k RTR
h -t 16.181657522 -s 6 -d 7 -p cbr -e 532 -c 2 -a 0 -i 47 -k RTR
+ -t 16.187891522 -s 7 -d 13 -p cbr -e 532 -c 2 -a 0 -i 47 -k RTR 
- -t 16.187891522 -s 7 -d 13 -p cbr -e 532 -c 2 -a 0 -i 47 -k RTR
h -t 16.187891522 -s 7 -d 13 -p cbr -e 532 -c 2 -a 0 -i 47 -k RTR
r -t 16.194045522 -s 13 -d 13 -p cbr -e 512 -c 2 -a 0 -i 47 -k AGT
+ -t 16.248885220 -s 1 -d -1 -p cbr -e 512 -c 2 -a 0 -i 48 -k AGT 
- -t 16.248885220 -s 1 -d -1 -p cbr -e 512 -c 2 -a 0 -i 48 -k AGT
h -t 16.248885220 -s 1 -d -1 -p cbr -e 512 -c 2 -a 0 -i 48 -k AGT
+ -t 16.248885220 -s 1 -d 7 -p cbr -e 532 -c 2 -a 0 -i 48 -k RTR 
- -t 16.248885220 -s 1 -d 7 -p cbr -e 532 -c 2 -a 0 -i 48 -k RTR
h -t 16.248885220 -s 1 -d 7 -p cbr -e 532 -c 2 -a 0 -i 48 -k RTR
+ -t 16.254655220 -s 7 -d 13 -p cbr -e 532 -c 2 -a 0 -i 48 -k RTR 
- -t 16.254655220 -s 7 -d 13 -p cbr -e 532 -c 2 -a 0 -i 48 -k RTR
h -t 16.254655220 -s 7 -d 13 -p cbr -e 532 -c 2 -a 0 -i 48 -k RTR
+ -t 16.257152456 -s 0 -d -1 -p cbr -e 512 -c 2 -a 0 -i 49 -k AGT 
- -t 16.257152456 -s 0 -d -1 -p cbr -e 512 -c 2 -a 0 -i 49 -k AGT
h -t 16.257152456 -s 0 -d -1 -p cbr -e 512 -c 2 -a 0 -i 49 -k AGT
+ -t 16.257152456 -s 0 -d 6 -p cbr -e 532 -c 2 -a 0 -i 49 -k RTR 
- -t 16.257152456 -s 0 -d 6 -p cbr -e 532 -c 2 -a 0 -i 49 -k RTR
h -t 16.257152456 -s 0 -d 6 -p cbr -e 532 -c 2 -a 0 -i 49 -k RTR
r -t 16.260909220 -s 13 -d 13 -p cbr -e 512 -c 2 -a 0 -i 48 -k AGT
+ -t 16.267268711 -s 6 -d 7 -p cbr -e 532 -c 2 -a 0 -i 49 -k RTR 
- -t 16.267268711 -s 6 -d 7 -p cbr -e 532 -c 2 -a 0 -i 49 -k RTR
h -t 16.267268711 -s 6 -d 7 -p cbr -e 532 -c 2 -a 0 -i 49 -k RTR
+ -t 16.273302711 -s 7 -d 13 -p cbr -e 532 -c 2 -a 0 -i 49 -k RTR 
- -t 16.273302711 -s 7 -d 13 -p cbr -e 532 -c 2 -a 0 -i 49 -k RTR
h -t 16.273302711 -s 7 -d 13 -p cbr -e 532 -c 2 -a 0 -i 49 -k RTR
r -t 16.279016711 -s 13 -d 13 -p cbr -e 512 -c 2 -a 0 -i 49 -k AGT
+ -t 16.280662129 -s 13 -d -1 -p cbr -e 512 -c 2 -a 0 -i 50 -k AGT 
- -t 16.280662129 -s 13 -d -1 -p cbr -e 512 -c 2 -a 0 -i 50 -k AGT
h -t 16.280662129 -s 13 -d -1 -p cbr -e 512 -c 2 -a 0 -i 50 -k AGT
+ -t 16.280662129 -s 13 -d 7 -p cbr -e 532 -c 2 -a 0 -i 50 -k RTR 
- -t 16.280662129 -s 13 -d 7 -p cbr -e 532 -c 2 -a 0 -i 50 -k RTR
h -t 16.280662129 -s 13 -d 7 -p cbr -e 532 -c 2 -a 0 -i 50 -k RTR
r -t 16.286592129 -s 7 -d 7 -p cbr -e 512 -c 2 -a 0 -i 50 -k AGT
+ -t 16.346666207 -s 1 -d -1 -p cbr -e 512 -c 2 -a 0 -i 51 -k AGT 
- -t 16.346666207 -s 1 -d -1 -p cbr -e 512 -c 2 -a 0 -i 51 -k AGT
h -t 16.346666207 -s 1 -d -1 -p cbr -e 512 -c 2 -a 0 -i 51 -k AGT
+ -t 16.346666207 -s 1 -d 7 -p cbr -e 532 -c 2 -a 0 -i 51 -k RTR 
- -t 16.346666207 -s 1 -d 7 -p cbr -e 532 -c 2 -a 0 -i 51 -k RTR