Sconfig 0.00000 tap: on snoop: rts? on errs? on
Sconfig 0.00000 salvage: on !bd replies? on
Sconfig 0.00000 grat error: on grat reply: on
Sconfig 0.00000 $reply for props: on ring 0 search: on
Sconfig 0.00000 using MOBICACHE
s 15.000000000 _0_ AGT  --- 0 cbr 512 [0 0 0 0] ------- [0:0 10:0 32 0] [0] 0 0
r 15.000000000 _0_ RTR  --- 0 cbr 512 [0 0 0 0] ------- [0:0 10:0 32 0] [0] 0 0
s 15.000000000 _1_ AGT  --- 2 cbr 512 [0 0 0 0] ------- [1:0 10:1 32 0] [0] 0 0
r 15.000000000 _1_ RTR  --- 2 cbr 512 [0 0 0 0] ------- [1:0 10:1 32 0] [0] 0 0
s 15.000000000 _5_ AGT  --- 4 cbr 512 [0 0 0 0] ------- [5:0 6:0 32 0] [0] 0 0
r 15.000000000 _5_ RTR  --- 4 cbr 512 [0 0 0 0] ------- [5:0 6:0 32 0] [0] 0 0
s 15.000185341 _1_ RTR  --- 3 DSR 32 [0 0 0 0] ------- [1:255 10:255 32 0] 1 [1 1] [0 1 0 0->0] [0 0 0 0->0]
r 15.001137674 _4_ RTR  --- 3 DSR 32 [0 ffffffff 1 800] ------- [1:255 10:255 32 0] 1 [1 1] [0 1 0 0->0] [0 0 0 0->0]
r 15.001138007 _0_ RTR  --- 3 DSR 32 [0 ffffffff 1 800] ------- [1:255 10:255 32 0] 1 [1 1] [0 1 0 0->0] [0 0 0 0->0]
r 15.001138007 _7_ RTR  --- 3 DSR 32 [0 ffffffff 1 800] ------- [1:255 10:255 32 0] 1 [1 1] [0 1 0 0->0] [0 0 0 0->0]
r 15.001138007 _2_ RTR  --- 3 DSR 32 [0 ffffffff 1 800] ------- [1:255 10:255 32 0] 1 [1 1] [0 1 0 0->0] [0 0 0 0->0]
r 15.001138086 _3_ RTR  --- 3 DSR 32 [0 ffffffff 1 800] ------- [1:255 10:255 32 0] 1 [1 1] [0 1 0 0->0] [0 0 0 0->0]
r 15.001138086 _5_ RTR  --- 3 DSR 32 [0 ffffffff 1 800] ------- [1:255 10:255 32 0] 1 [1 1] [0 1 0 0->0] [0 0 0 0->0]
s 15.001189323 _5_ RTR  --- 5 DSR 32 [0 0 0 0] ------- [5:255 6:255 32 0] 1 [1 1] [0 1 0 0->0] [0 0 0 0->0]
r 15.002121657 _2_ RTR  --- 5 DSR 32 [0 ffffffff 5 800] ------- [5:255 6:255 32 0] 1 [1 1] [0 1 0 0->0] [0 0 0 0->0]
r 15.002121657 _8_ RTR  --- 5 DSR 32 [0 ffffffff 5 800] ------- [5:255 6:255 32 0] 1 [1 1] [0 1 0 0->0] [0 0 0 0->0]
r 15.002121990 _4_ RTR  --- 5 DSR 32 [0 ffffffff 5 800] ------- [5:255 6:255 32 0] 1 [1 1] [0 1 0 0->0] [0 0 0 0->0]
r 15.002122069 _7_ RTR  --- 5 DSR 32 [0 ffffffff 5 800] ------- [5:255 6:255 32 0] 1 [1 1] [0 1 0 0->0] [0 0 0 0->0]
r 15.002122069 _1_ RTR  --- 5 DSR 32 [0 ffffffff 5 800] ------- [5:255 6:255 32 0] 1 [1 1] [0 1 0 0->0] [0 0 0 0->0]
s 15.003166890 _0_ RTR  --- 1 DSR 32 [0 0 0 0] ------- [0:255 10:255 32 0] 1 [1 1] [0 1 0 0->0] [0 0 0 0->0]
r 15.004179223 _3_ RTR  --- 1 DSR 32 [0 ffffffff 0 800] ------- [0:255 10:255 32 0] 1 [1 1] [0 1 0 0->0] [0 0 0 0->0]
r 15.004179556 _6_ RTR  --- 1 DSR 32 [0 ffffffff 0 800] ------- [0:255 10:255 32 0] 1 [1 1] [0 1 0 0->0] [0 0 0 0->0]
r 15.004179556 _1_ RTR  --- 1 DSR 32 [0 ffffffff 0 800] ------- [0:255 10:255 32 0] 1 [1 1] [0 1 0 0->0] [0 0 0 0->0]
r 15.004179635 _4_ RTR  --- 1 DSR 32 [0 ffffffff 0 800] ------- [0:255 10:255 32 0] 1 [1 1] [0 1 0 0->0] [0 0 0 0->0]
s 15.045556081 _1_ RTR  --- 8 DSR 32 [0 0 0 0] ------- [1:255 10:255 32 0] 1 [1 2] [0 2 0 0->16] [0 0 0 0->0]
r 15.046648414 _4_ RTR  --- 8 DSR 32 [0 ffffffff 1 800] ------- [1:255 10:255 32 0] 1 [1 2] [0 2 0 0->16] [0 0 0 0->0]
r 15.046648747 _0_ RTR  --- 8 DSR 32 [0 ffffffff 1 800] ------- [1:255 10:255 32 0] 1 [1 2] [0 2 0 0->16] [0 0 0 0->0]
r 15.046648747 _7_ RTR  --- 8 DSR 32 [0 ffffffff 1 800] ------- [1:255 10:255 32 0] 1 [1 2] [0 2 0 0->16] [0 0 0 0->0]
r 15.046648747 _2_ RTR  --- 8 DSR 32 [0 ffffffff 1 800] ------- [1:255 10:255 32 0] 1 [1 2] [0 2 0 0->16] [0 0 0 0->0]
r 15.046648826 _3_ RTR  --- 8 DSR 32 [0 ffffffff 1 800] ------- [1:255 10:255 32 0] 1 [1 2] [0 2 0 0->16] [0 0 0 0->0]
r 15.046648826 _5_ RTR  --- 8 DSR 32 [0 ffffffff 1 800] ------- [1:255 10:255 32 0] 1 [1 2] [0 2 0 0->16] [0 0 0 0->0]
f 15.048311349 _7_ RTR  --- 8 DSR 48 [0 ffffffff 1 800] ------- [1:255 10:255 32 0] 2 [1 2] [0 2 0 0->16] [0 0 0 0->0]
r 15.049671682 _4_ RTR  --- 8 DSR 48 [0 ffffffff 7 800] ------- [1:255 10:255 32 0] 2 [1 2] [0 2 0 0->16] [0 0 0 0->0]
r 15.049672015 _1_ RTR  --- 8 DSR 48 [0 ffffffff 7 800] ------- [1:255 10:255 32 0] 2 [1 2] [0 2 0 0->16] [0 0 0 0->0]
r 15.049672015 _6_ RTR  --- 8 DSR 48 [0 ffffffff 7 800] ------- [1:255 10:255 32 0] 2 [1 2] [0 2 0 0->16] [0 0 0 0->0]
r 15.049672015 _10_ RTR  --- 8 DSR 48 [0 ffffffff 7 800] ------- [1:255 10:255 32 0] 2 [1 2] [0 2 0 0->16] [0 0 0 0->0]
r 15.049672015 _8_ RTR  --- 8 DSR 48 [0 ffffffff 7 800] ------- [1:255 10:255 32 0] 2 [1 2] [0 2 0 0->16] [0 0 0 0->0]
r 15.049672094 _3_ RTR  --- 8 DSR 48 [0 ffffffff 7 800] ------- [1:255 10:255 32 0] 2 [1 2] [0 2 0 0->16] [0 0 0 0->0]
r 15.049672094 _5_ RTR  --- 8 DSR 48 [0 ffffffff 7 800] ------- [1:255 10:255 32 0] 2 [1 2] [0 2 0 0->16] [0 0 0 0->0]
s 15.050169191 _10_ RTR  --- 9 DSR 52 [0 0 0 0] ------- [10:255 1:255 254 7] 3 [0 2] [1 2 3 1->10] [0 0 0 0->0]
f 15.050623485 _8_ RTR  --- 8 DSR 68 [0 ffffffff 7 800] ------- [1:255 10:255 32 0] 3 [1 2] [0 2 0 0->16] [0 0 0 0->0]
f 15.050745134 _6_ RTR  --- 8 DSR 68 [0 ffffffff 7 800] ------- [1:255 10:255 32 0] 3 [1 2] [0 2 0 0->16] [0 0 0 0->0]
f 15.050958581 _0_ RTR  --- 8 DSR 48 [0 ffffffff 1 800] ------- [1:255 10:255 32 0] 2 [1 2] [0 2 0 0->16] [0 0 0 0->0]
f 15.051647003 _2_ RTR  --- 8 DSR 48 [0 ffffffff 1 800] ------- [1:255 10:255 32 0] 2 [1 2] [0 2 0 0->16] [0 0 0 0->0]
s 15.051824919 _0_ RTR  --- 7 DSR 32 [0 0 0 0] ------- [0:255 10:255 32 0] 1 [1 2] [0 2 0 0->16] [0 0 0 0->0]
r 15.051859191 _7_ RTR  --- 9 DSR 52 [13a 7 a 800] ------- [10:255 1:255 254 7] 3 [0 2] [1 2 3 1->10] [0 0 0 0->0]
f 15.051859191 _7_ RTR  --- 9 DSR 52 [13a 7 a 800] ------- [10:255 1:255 253 1] 3 [0 2] [1 2 3 1->10] [0 0 0 0->0]
f 15.052010744 _5_ RTR  --- 8 DSR 48 [0 ffffffff 1 800] ------- [1:255 10:255 32 0] 2 [1 2] [0 2 0 0->16] [0 0 0 0->0]
f 15.052882937 _4_ RTR  --- 8 DSR 48 [0 ffffffff 1 800] ------- [1:255 10:255 32 0] 2 [1 2] [0 2 0 0->16] [0 0 0 0->0]
r 15.053333800 _5_ RTR  --- 8 DSR 68 [0 ffffffff 8 800] ------- [1:255 10:255 32 0] 3 [1 2] [0 2 0 0->16] [0 0 0 0->0]
r 15.053334133 _2_ RTR  --- 8 DSR 68 [0 ffffffff 8 800] ------- [1:255 10:255 32 0] 3 [1 2] [0 2 0 0->16] [0 0 0 0->0]
r 15.053334133 _7_ RTR  --- 8 DSR 68 [0 ffffffff 8 800] ------- [1:255 10:255 32 0] 3 [1 2] [0 2 0 0->16] [0 0 0 0->0]
r 15.053334133 _11_ RTR  --- 8 DSR 68 [0 ffffffff 8 800] ------- [1:255 10:255 32 0] 3 [1 2] [0 2 0 0->16] [0 0 0 0->0]
s 15.053334133 _11_ RTR  --- 10 DSR 64 [0 0 0 0] ------- [11:255 1:255 255 8] 4 [0 2] [1 2 5 1->10] [0 0 0 0->0]
r 15.053334212 _4_ RTR  --- 8 DSR 68 [0 ffffffff 8 800] ------- [1:255 10:255 32 0] 3 [1 2] [0 2 0 0->16] [0 0 0 0->0]
f 15.053659555 _3_ RTR  --- 8 DSR 48 [0 ffffffff 1 800] ------- [1:255 10:255 32 0] 2 [1 2] [0 2 0 0->16] [0 0 0 0->0]
r 15.054204467 _5_ RTR  --- 8 DSR 48 [0 ffffffff 2 800] ------- [1:255 10:255 32 0] 2 [1 2] [0 2 0 0->16] [0 0 0 0->0]
r 15.054204800 _1_ RTR  --- 8 DSR 48 [0 ffffffff 2 800] ------- [1:255 10:255 32 0] 2 [1 2] [0 2 0 0->16] [0 0 0 0->0]
r 15.054204800 _8_ RTR  --- 8 DSR 48 [0 ffffffff 2 800] ------- [1:255 10:255 32 0] 2 [1 2] [0 2 0 0->16] [0 0 0 0->0]
r 15.054204879 _4_ RTR  --- 8 DSR 48 [0 ffffffff 2 800] ------- [1:255 10:255 32 0] 2 [1 2] [0 2 0 0->16] [0 0 0 0->0]
r 15.055094800 _2_ RTR  --- 8 DSR 48 [0 ffffffff 5 800] ------- [1:255 10:255 32 0] 2 [1 2] [0 2 0 0->16] [0 0 0 0->0]
r 15.055094800 _8_ RTR  --- 8 DSR 48 [0 ffffffff 5 800] ------- [1:255 10:255 32 0] 2 [1 2] [0 2 0 0->16] [0 0 0 0->0]
r 15.055095133 _4_ RTR  --- 8 DSR 48 [0 ffffffff 5 800] ------- [1:255 10:255 32 0] 2 [1 2] [0 2 0 0->16] [0 0 0 0->0]
r 15.055095212 _7_ RTR  --- 8 DSR 48 [0 ffffffff 5 800] ------- [1:255 10:255 32 0] 2 [1 2] [0 2 0 0->16] [0 0 0 0->0]
r 15.055095212 _1_ RTR  --- 8 DSR 48 [0 ffffffff 5 800] ------- [1:255 10:255 32 0] 2 [1 2] [0 2 0 0->16] [0 0 0 0->0]
r 15.056105467 _1_ RTR  --- 8 DSR 48 [0 ffffffff 4 800] ------- [1:255 10:255 32 0] 2 [1 2] [0 2 0 0->16] [0 0 0 0->0]
r 15.056105467 _7_ RTR  --- 8 DSR 48 [0 ffffffff 4 800] ------- [1:255 10:255 32 0] 2 [1 2] [0 2 0 0->16] [0 0 0 0->0]
r 15.056105800 _3_ RTR  --- 8 DSR 48 [0 ffffffff 4 800] ------- [1:255 10:255 32 0] 2 [1 2] [0 2 0 0->16] [0 0 0 0->0]
r 15.056105800 _5_ RTR  --- 8 DSR 48 [0 ffffffff 4 800] ------- [1:255 10:255 32 0] 2 [1 2] [0 2 0 0->16] [0 0 0 0->0]
r 15.056105879 _6_ RTR  --- 8 DSR 48 [0 ffffffff 4 800] ------- [1:255 10:255 32 0] 2 [1 2] [0 2 0 0->16] [0 0 0 0->0]
r 15.056105879 _0_ RTR  --- 8 DSR 48 [0 ffffffff 4 800] ------- [1:255 10:255 32 0] 2 [1 2] [0 2 0 0->16] [0 0 0 0->0]
r 15.056105879 _2_ RTR  --- 8 DSR 48 [0 ffffffff 4 800] ------- [1:255 10:255 32 0] 2 [1 2] [0 2 0 0->16] [0 0 0 0->0]
r 15.056105879 _8_ RTR  --- 8 DSR 48 [0 ffffffff 4 800] ------- [1:255 10:255 32 0] 2 [1 2] [0 2 0 0->16] [0 0 0 0->0]
r 15.057705467 _1_ RTR  --- 9 DSR 52 [13a 1 7 800] ------- [10:255 1:255 253 1] 3 [0 2] [1 2 3 1->10] [0 0 0 0->0]
SFESTs 15.057705467 _1_ 2 [1 -> 10] 1(1) to 7 [1 |7 10 ]
s 15.057705467 _1_ RTR  --- 2 cbr 552 [0 0 0 0] ------- [1:0 10:1 32 7] [0] 0 0
r 15.059200076 _3_ RTR  --- 8 DSR 48 [0 ffffffff 0 800] ------- [1:255 10:255 32 0] 2 [1 2] [0 2 0 0->16] [0 0 0 0->0]
r 15.059200410 _6_ RTR  --- 8 DSR 48 [0 ffffffff 0 800] ------- [1:255 10:255 32 0] 2 [1 2] [0 2 0 0->16] [0 0 0 0->0]
r 15.059200410 _1_ RTR  --- 8 DSR 48 [0 ffffffff 0 800] ------- [1:255 10:255 32 0] 2 [1 2] [0 2 0 0->16] [0 0 0 0->0]
r 15.059982076 _3_ RTR  --- 7 DSR 32 [0 ffffffff 0 800] ------- [0:255 10:255 32 0] 1 [1 2] [0 2 0 0->16] [0 0 0 0->0]
r 15.059982410 _6_ RTR  --- 7 DSR 32 [0 ffffffff 0 800] ------- [0:255 10:255 32 0] 1 [1 2] [0 2 0 0->16] [0 0 0 0->0]
r 15.059982410 _1_ RTR  --- 7 DSR 32 [0 ffffffff 0 800] ------- [0:255 10:255 32 0] 1 [1 2] [0 2 0 0->16] [0 0 0 0->0]
s 15.059982410 _1_ RTR  --- 11 DSR 52 [0 0 0 0] ------- [1:255 0:255 255 0] 2 [0 2] [1 2 4 0->10] [0 0 0 0->0]
r 15.061362957 _0_ RTR  --- 8 DSR 48 [0 ffffffff 3 800] ------- [1:255 10:255 32 0] 2 [1 2] [0 2 0 0->16] [0 0 0 0->0]
r 15.061362957 _6_ RTR  --- 8 DSR 48 [0 ffffffff 3 800] ------- [1:255 10:255 32 0] 2 [1 2] [0 2 0 0->16] [0 0 0 0->0]
r 15.061363291 _4_ RTR  --- 8 DSR 48 [0 ffffffff 3 800] ------- [1:255 10:255 32 0] 2 [1 2] [0 2 0 0->16] [0 0 0 0->0]
r 15.061363370 _1_ RTR  --- 8 DSR 48 [0 ffffffff 3 800] ------- [1:255 10:255 32 0] 2 [1 2] [0 2 0 0->16] [0 0 0 0->0]
r 15.061363370 _7_ RTR  --- 8 DSR 48 [0 ffffffff 3 800] ------- [1:255 10:255 32 0] 2 [1 2] [0 2 0 0->16] [0 0 0 0->0]
f 15.065697882 _6_ RTR  --- 7 DSR 48 [0 ffffffff 0 800] ------- [0:255 10:255 32 0] 2 [1 2] [0 2 0 0->16] [0 0 0 0->0]
f 15.066066500 _3_ RTR  --- 7 DSR 48 [0 ffffffff 0 800] ------- [0:255 10:255 32 0] 2 [1 2] [0 2 0 0->16] [0 0 0 0->0]
r 15.067023370 _7_ RTR  --- 2 cbr 552 [13a 7 1 800] ------- [1:0 10:1 32 7] [0] 1 0
f 15.067023370 _7_ RTR  --- 2 cbr 552 [13a 7 1 800] ------- [1:0 10:1 31 10] [0] 1 0
r 15.068898036 _0_ RTR  --- 11 DSR 52 [13a 0 1 800] ------- [1:255 0:255 255 0] 2 [0 2] [1 2 4 0->10] [0 0 0 0->0]
SFESTs 15.068898036 _0_ 0 [0 -> 10] 1(1) to 1 [0 |1 7 10 ]
s 15.068898036 _0_ RTR  --- 0 cbr 556 [0 0 0 0] ------- [0:0 10:0 32 1] [0] 0 0
s 15.073787652 _5_ RTR  --- 12 DSR 32 [0 0 0 0] ------- [5:255 6:255 32 0] 1 [1 2] [0 2 0 0->16] [0 0 0 0->0]
s 15.074198064 _5_ AGT  --- 13 cbr 512 [0 0 0 0] ------- [5:0 6:0 32 0] [1] 0 0
r 15.074198064 _5_ RTR  --- 13 cbr 512 [0 0 0 0] ------- [5:0 6:0 32 0] [1] 0 0
r 15.074904036 _1_ RTR  --- 0 cbr 556 [13a 1 0 800] ------- [0:0 10:0 32 1] [0] 1 0
f 15.074904036 _1_ RTR  --- 0 cbr 556 [13a 1 0 800] ------- [0:0 10:0 31 7] [0] 1 0
r 15.080908312 _10_ RTR  --- 2 cbr 552 [13a a 7 800] ------- [1:0 10:1 31 10] [0] 2 0
r 15.080908312 _10_ AGT  --- 2 cbr 512 [13a a 7 800] ------- [1:0 10:1 31 10] [0] 2 0
r 15.082637588 _3_ RTR  --- 8 DSR 68 [0 ffffffff 6 800] ------- [1:255 10:255 32 0] 3 [1 2] [0 2 0 0->16] [0 0 0 0->0]
r 15.082637922 _0_ RTR  --- 8 DSR 68 [0 ffffffff 6 800] ------- [1:255 10:255 32 0] 3 [1 2] [0 2 0 0->16] [0 0 0 0->0]
r 15.082637922 _9_ RTR  --- 8 DSR 68 [0 ffffffff 6 800] ------- [1:255 10:255 32 0] 3 [1 2] [0 2 0 0->16] [0 0 0 0->0]
r 15.082637922 _7_ RTR  --- 8 DSR 68 [0 ffffffff 6 800] ------- [1:255 10:255 32 0] 3 [1 2] [0 2 0 0->16] [0 0 0 0->0]
s 15.082637922 _9_ RTR  --- 15 DSR 64 [0 0 0 0] ------- [9:255 1:255 255 6] 4 [0 2] [1 2 5 1->10] [0 0 0 0->0]
r 15.082638000 _4_ RTR  --- 8 DSR 68 [0 ffffffff 6 800] ------- [1:255 10:255 32 0] 3 [1 2] [0 2 0 0->16] [0 0 0 0->0]
r 15.083587922 _0_ RTR  --- 7 DSR 48 [0 ffffffff 3 800] ------- [0:255 10:255 32 0] 2 [1 2] [0 2 0 0->16] [0 0 0 0->0]
r 15.083587922 _6_ RTR  --- 7 DSR 48 [0 ffffffff 3 800] ------- [0:255 10:255 32 0] 2 [1 2] [0 2 0 0->16] [0 0 0 0->0]
r 15.083588255 _4_ RTR  --- 7 DSR 48 [0 ffffffff 3 800] ------- [0:255 10:255 32 0] 2 [1 2] [0 2 0 0->16] [0 0 0 0->0]
s 15.083588255 _4_ RTR  --- 16 DSR 64 [0 0 0 0] ------- [4:255 0:255 255 3] 3 [0 2] [1 2 6 0->10] [0 0 0 0->0]
r 15.083588334 _1_ RTR  --- 7 DSR 48 [0 ffffffff 3 800] ------- [0:255 10:255 32 0] 2 [1 2] [0 2 0 0->16] [0 0 0 0->0]
r 15.083588334 _7_ RTR  --- 7 DSR 48 [0 ffffffff 3 800] ------- [0:255 10:255 32 0] 2 [1 2] [0 2 0 0->16] [0 0 0 0->0]
s 15.083588334 _7_ RTR  --- 17 DSR 56 [0 0 0 0] ------- [7:255 0:255 255 3] 3 [0 2] [1 2 4 0->10] [0 0 0 0->0]
r 15.085240570 _3_ RTR  --- 17 DSR 56 [13a 3 7 800] ------- [7:255 0:255 255 3] 3 [0 2] [1 2 4 0->10] [0 0 0 0->0]
f 15.085240570 _3_ RTR  --- 17 DSR 56 [13a 3 7 800] ------- [7:255 0:255 254 0] 3 [0 2] [1 2 4 0->10] [0 0 0 0->0]
r 15.087291237 _3_ RTR  --- 16 DSR 64 [13a 3 4 800] ------- [4:255 0:255 255 3] 3 [0 2] [1 2 6 0->10] [0 0 0 0->0]
f 15.087291237 _3_ RTR  --- 16 DSR 64 [13a 3 4 800] ------- [4:255 0:255 254 0] 3 [0 2] [1 2 6 0->10] [0 0 0 0->0]
r 15.093277982 _7_ RTR  --- 0 cbr 556 [13a 7 1 800] ------- [0:0 10:0 31 7] [0] 2 0
f 15.093277982 _7_ RTR  --- 0 cbr 556 [13a 7 1 800] ------- [0:0 10:0 30 10] [0] 2 0
r 15.094335061 _2_ RTR  --- 12 DSR 32 [0 ffffffff 5 800] ------- [5:255 6:255 32 0] 1 [1 2] [0 2 0 0->16] [0 0 0 0->0]
r 15.094335061 _8_ RTR  --- 12 DSR 32 [0 ffffffff 5 800] ------- [5:255 6:255 32 0] 1 [1 2] [0 2 0 0->16] [0 0 0 0->0]
r 15.094335394 _4_ RTR  --- 12 DSR 32 [0 ffffffff 5 800] ------- [5:255 6:255 32 0] 1 [1 2] [0 2 0 0->16] [0 0 0 0->0]
r 15.094335473 _7_ RTR  --- 12 DSR 32 [0 ffffffff 5 800] ------- [5:255 6:255 32 0] 1 [1 2] [0 2 0 0->16] [0 0 0 0->0]
r 15.094335473 _1_ RTR  --- 12 DSR 32 [0 ffffffff 5 800] ------- [5:255 6:255 32 0] 1 [1 2] [0 2 0 0->16] [0 0 0 0->0]
f 15.095897142 _4_ RTR  --- 12 DSR 48 [0 ffffffff 5 800] ------- [5:255 6:255 32 0] 2 [1 2] [0 2 0 0->16] [0 0 0 0->0]
f 15.099150693 _2_ RTR  --- 12 DSR 48 [0 ffffffff 5 800] ------- [5:255 6:255 32 0] 2 [1 2] [0 2 0 0->16] [0 0 0 0->0]
f 15.099468063 _8_ RTR  --- 12 DSR 48 [0 ffffffff 5 800] ------- [5:255 6:255 32 0] 2 [1 2] [0 2 0 0->16] [0 0 0 0->0]
f 15.100150832 _1_ RTR  --- 12 DSR 48 [0 ffffffff 5 800] ------- [5:255 6:255 32 0] 2 [1 2] [0 2 0 0->16] [0 0 0 0->0]
r 15.100327473 _10_ RTR  --- 0 cbr 556 [13a a 7 800] ------- [0:0 10:0 30 10] [0] 3 0
r 15.100327473 _10_ AGT  --- 0 cbr 512 [13a a 7 800] ------- [0:0 10:0 30 10] [0] 3 0
f 15.100591288 _7_ RTR  --- 12 DSR 48 [0 ffffffff 5 800] ------- [5:255 6:255 32 0] 2 [1 2] [0 2 0 0->16] [0 0 0 0->0]
r 15.103092787 _3_ RTR  --- 7 DSR 48 [0 ffffffff 6 800] ------- [0:255 10:255 32 0] 2 [1 2] [0 2 0 0->16] [0 0 0 0->0]
r 15.103093121 _0_ RTR  --- 7 DSR 48 [0 ffffffff 6 800] ------- [0:255 10:255 32 0] 2 [1 2] [0 2 0 0->16] [0 0 0 0->0]
r 15.103093121 _9_ RTR  --- 7 DSR 48 [0 ffffffff 6 800] ------- [0:255 10:255 32 0] 2 [1 2] [0 2 0 0->16] [0 0 0 0->0]
r 15.103093121 _7_ RTR  --- 7 DSR 48 [0 ffffffff 6 800] ------- [0:255 10:255 32 0] 2 [1 2] [0 2 0 0->16] [0 0 0 0->0]
s 15.103093121 _9_ RTR  --- 20 DSR 56 [0 0 0 0] ------- [9:255 0:255 255 6] 3 [0 2] [1 2 4 0->10] [0 0 0 0->0]
r 15.103093199 _4_ RTR  --- 7 DSR 48 [0 ffffffff 6 800] ------- [0:255 10:255 32 0] 2 [1 2] [0 2 0 0->16] [0 0 0 0->0]
r 15.104003454 _4_ RTR  --- 12 DSR 48 [0 ffffffff 7 800] ------- [5:255 6:255 32 0] 2 [1 2] [0 2 0 0->16] [0 0 0 0->0]
r 15.104003787 _1_ RTR  --- 12 DSR 48 [0 ffffffff 7 800] ------- [5:255 6:255 32 0] 2 [1 2] [0 2 0 0->16] [0 0 0 0->0]
r 15.104003787 _6_ RTR  --- 12 DSR 48 [0 ffffffff 7 800] ------- [5:255 6:255 32 0] 2 [1 2] [0 2 0 0->16] [0 0 0 0->0]
r 15.104003787 _10_ RTR  --- 12 DSR 48 [0 ffffffff 7 800] ------- [5:255 6:255 32 0] 2 [1 2] [0 2 0 0->16] [0 0 0 0->0]
r 15.104003787 _8_ RTR  --- 12 DSR 48 [0 ffffffff 7 800] ------- [5:255 6:255 32 0] 2 [1 2] [0 2 0 0->16] [0 0 0 0->0]
r 15.104003866 _3_ RTR  --- 12 DSR 48 [0 ffffffff 7 800] ------- [5:255 6:255 32 0] 2 [1 2] [0 2 0 0->16] [0 0 0 0->0]
r 15.104003866 _5_ RTR  --- 12 DSR 48 [0 ffffffff 7 800] ------- [5:255 6:255 32 0] 2 [1 2] [0 2 0 0->16] [0 0 0 0->0]
s 15.104811056 _1_ AGT  --- 22 cbr 512 [0 0 0 0] ------- [1:0 10:1 32 0] [1] 0 0
r 15.104811056 _1_ RTR  --- 22 cbr 512 [0 0 0 0] ------- [1:0 10:1 32 0] [1] 0 0
SFESTs 15.104811056 _1_ 22 [1 -> 10] 1(1) to 7 [1 |7 10 ]
s 15.104811056 _1_ RTR  --- 22 cbr 552 [0 0 0 0] ------- [1:0 10:1 32 7] [1] 0 0
r 15.104894121 _4_ RTR  --- 12 DSR 48 [0 ffffffff 1 800] ------- [5:255 6:255 32 0] 2 [1 2] [0 2 0 0->16] [0 0 0 0->0]
r 15.104894454 _0_ RTR  --- 12 DSR 48 [0 ffffffff 1 800] ------- [5:255 6:255 32 0] 2 [1 2] [0 2 0 0->16] [0 0 0 0->0]
r 15.104894454 _7_ RTR  --- 12 DSR 48 [0 ffffffff 1 800] ------- [5:255 6:255 32 0] 2 [1 2] [0 2 0 0->16] [0 0 0 0->0]
r 15.104894454 _2_ RTR  --- 12 DSR 48 [0 ffffffff 1 800] ------- [5:255 6:255 32 0] 2 [1 2] [0 2 0 0->16] [0 0 0 0->0]
r 15.104894533 _3_ RTR  --- 12 DSR 48 [0 ffffffff 1 800] ------- [5:255 6:255 32 0] 2 [1 2] [0 2 0 0->16] [0 0 0 0->0]
r 15.104894533 _5_ RTR  --- 12 DSR 48 [0 ffffffff 1 800] ------- [5:255 6:255 32 0] 2 [1 2] [0 2 0 0->16] [0 0 0 0->0]
s 15.105323162 _6_ RTR  --- 21 DSR 52 [0 0 0 0] ------- [6:255 5:255 254 7] 3 [0 2] [1 2 3 5->6] [0 0 0 0->0]
f 15.109078636 _3_ RTR  --- 12 DSR 68 [0 ffffffff 7 800] ------- [5:255 6:255 32 0] 3 [1 2] [0 2 0 0->16] [0 0 0 0->0]
f 15.109605532 _10_ RTR  --- 12 DSR 68 [0 ffffffff 7 800] ------- [5:255 6:255 32 0] 3 [1 2] [0 2 0 0->16] [0 0 0 0->0]
r 15.110533787 _7_ RTR  --- 22 cbr 552 [13a 7 1 800] ------- [1:0 10:1 32 7] [1] 1 0
f 15.110533787 _7_ RTR  --- 22 cbr 552 [13a 7 1 800] ------- [1:0 10:1 31 10] [1] 1 0
f 15.112223851 _0_ RTR  --- 12 DSR 68 [0 ffffffff 1 800] ------- [5:255 6:255 32 0] 3 [1 2] [0 2 0 0->16] [0 0 0 0->0]
r 15.112559533 _0_ RTR  --- 17 DSR 56 [13a 0 3 800] ------- [7:255 0:255 254 0] 3 [0 2] [1 2 4 0->10] [0 0 0 0->0]
r 15.113964611 _1_ RTR  --- 12 DSR 48 [0 ffffffff 4 800] ------- [5:255 6:255 32 0] 2 [1 2] [0 2 0 0->16] [0 0 0 0->0]
r 15.113964611 _7_ RTR  --- 12 DSR 48 [0 ffffffff 4 800] ------- [5:255 6:255 32 0] 2 [1 2] [0 2 0 0->16] [0 0 0 0->0]
r 15.113964945 _3_ RTR  --- 12 DSR 48 [0 ffffffff 4 800] ------- [5:255 6:255 32 0] 2 [1 2] [0 2 0 0->16] [0 0 0 0->0]
r 15.113964945 _5_ RTR  --- 12 DSR 48 [0 ffffffff 4 800] ------- [5:255 6:255 32 0] 2 [1 2] [0 2 0 0->16] [0 0 0 0->0]
r 15.113965023 _6_ RTR  --- 12 DSR 48 [0 ffffffff 4 800] ------- [5:255 6:255 32 0] 2 [1 2] [0 2 0 0->16] [0 0 0 0->0]
r 15.113965023 _0_ RTR  --- 12 DSR 48 [0 ffffffff 4 800] ------- [5:255 6:255 32 0] 2 [1 2] [0 2 0 0->16] [0 0 0 0->0]
r 15.113965023 _2_ RTR  --- 12 DSR 48 [0 ffffffff 4 800] ------- [5:255 6:255 32 0] 2 [1 2] [0 2 0 0->16] [0 0 0 0->0]
r 15.113965023 _8_ RTR  --- 12 DSR 48 [0 ffffffff 4 800] ------- [5:255 6:255 32 0] 2 [1 2] [0 2 0 0->16] [0 0 0 0->0]
r 15.119564611 _10_ RTR  --- 22 cbr 552 [13a a 7 800] ------- [1:0 10:1 31 10] [1] 2 0
r 15.119564611 _10_ AGT  --- 22 cbr 512 [13a a 7 800] ------- [1:0 10:1 31 10] [1] 2 0
r 15.121269278 _7_ RTR  --- 12 DSR 68 [0 ffffffff a 800] ------- [5:255 6:255 32 0] 3 [1 2] [0 2 0 0->16] [0 0 0 0->0]
r 15.121269278 _9_ RTR  --- 12 DSR 68 [0 ffffffff a 800] ------- [5:255 6:255 32 0] 3 [1 2] [0 2 0 0->16] [0 0 0 0->0]
r 15.121269278 _11_ RTR  --- 12 DSR 68 [0 ffffffff a 800] ------- [5:255 6:255 32 0] 3 [1 2] [0 2 0 0->16] [0 0 0 0->0]
s 15.121269278 _9_ RTR  --- 24 DSR 64 [0 0 0 0] ------- [9:255 5:255 255 10] 4 [0 2] [1 2 5 5->6] [0 0 0 0->0]
s 15.121590877 _6_ RTR  --- 23 DSR 52 [0 0 0 0] ------- [6:255 5:255 254 4] 3 [0 2] [1 2 3 5->6] [0 0 0 0->0]
r 15.122744435 _3_ RTR  --- 12 DSR 68 [0 ffffffff 0 800] ------- [5:255 6:255 32 0] 3 [1 2] [0 2 0 0->16] [0 0 0 0->0]
r 15.122744769 _6_ RTR  --- 12 DSR 68 [0 ffffffff 0 800] ------- [5:255 6:255 32 0] 3 [1 2] [0 2 0 0->16] [0 0 0 0->0]
r 15.122744769 _1_ RTR  --- 12 DSR 68 [0 ffffffff 0 800] ------- [5:255 6:255 32 0] 3 [1 2] [0 2 0 0->16] [0 0 0 0->0]
r 15.124396769 _7_ RTR  --- 21 DSR 52 [13a 7 6 800] ------- [6:255 5:255 254 7] 3 [0 2] [1 2 3 5->6] [0 0 0 0->0]
f 15.124396769 _7_ RTR  --- 21 DSR 52 [13a 7 6 800] ------- [6:255 5:255 253 5] 3 [0 2] [1 2 3 5->6] [0 0 0 0->0]
r 15.125781847 _0_ RTR  --- 12 DSR 68 [0 ffffffff 3 800] ------- [5:255 6:255 32 0] 3 [1 2] [0 2 0 0->16] [0 0 0 0->0]
r 15.125781847 _6_ RTR  --- 12 DSR 68 [0 ffffffff 3 800] ------- [5:255 6:255 32 0] 3 [1 2] [0 2 0 0->16] [0 0 0 0->0]
r 15.125782181 _4_ RTR  --- 12 DSR 68 [0 ffffffff 3 800] ------- [5:255 6:255 32 0] 3 [1 2] [0 2 0 0->16] [0 0 0 0->0]
r 15.125782260 _1_ RTR  --- 12 DSR 68 [0 ffffffff 3 800] ------- [5:255 6:255 32 0] 3 [1 2] [0 2 0 0->16] [0 0 0 0->0]
r 15.125782260 _7_ RTR  --- 12 DSR 68 [0 ffffffff 3 800] ------- [5:255 6:255 32 0] 3 [1 2] [0 2 0 0->16] [0 0 0 0->0]
r 15.127556514 _0_ RTR  --- 16 DSR 64 [13a 0 3 800] ------- [4:255 0:255 254 0] 3 [0 2] [1 2 6 0->10] [0 0 0 0->0]
s 15.127998761 _6_ RTR  --- 25 DSR 60 [0 0 0 0] ------- [6:255 5:255 254 0] 4 [0 2] [1 2 4 5->6] [0 0 0 0->0]
r 15.129651417 _4_ RTR  --- 23 DSR 52 [13a 4 6 800] ------- [6:255 5:255 254 4] 3 [0 2] [1 2 3 5->6] [0 0 0 0->0]
f 15.129651417 _4_ RTR  --- 23 DSR 52 [13a 4 6 800] ------- [6:255 5:255 253 5] 3 [0 2] [1 2 3 5->6] [0 0 0 0->0]
f 15.129811255 _11_ RTR  --- 12 DSR 92 [0 ffffffff a 800] ------- [5:255 6:255 32 0] 4 [1 2] [0 2 0 0->16] [0 0 0 0->0]
r 15.130886338 _5_ RTR  --- 12 DSR 48 [0 ffffffff 8 800] ------- [5:255 6:255 32 0] 2 [1 2] [0 2 0 0->16] [0 0 0 0->0]
r 15.130886672 _2_ RTR  --- 12 DSR 48 [0 ffffffff 8 800] ------- [5:255 6:255 32 0] 2 [1 2] [0 2 0 0->16] [0 0 0 0->0]
r 15.130886672 _7_ RTR  --- 12 DSR 48 [0 ffffffff 8 800] ------- [5:255 6:255 32 0] 2 [1 2] [0 2 0 0->16] [0 0 0 0->0]
r 15.130886672 _11_ RTR  --- 12 DSR 48 [0 ffffffff 8 800] ------- [5:255 6:255 32 0] 2 [1 2] [0 2 0 0->16] [0 0 0 0->0]
r 15.130886750 _4_ RTR  --- 12 DSR 48 [0 ffffffff 8 800] ------- [5:255 6:255 32 0] 2 [1 2] [0 2 0 0->16] [0 0 0 0->0]
r 15.132486750 _5_ RTR  --- 23 DSR 52 [13a 5 4 800] ------- [6:255 5:255 253 5] 3 [0 2] [1 2 3 5->6] [0 0 0 0->0]
SFESTs 15.132486750 _5_ 4 [5 -> 6] 1(1) to 4 [5 |4 6 ]
SFESTs 15.132486750 _5_ 13 [5 -> 6] 1(1) to 4 [5 |4 6 ]
s 15.132486750 _5_ RTR  --- 4 cbr 552 [0 0 0 0] ------- [5:0 6:0 32 4] [0] 0 0
s 15.133581485 _6_ RTR  --- 26 DSR 60 [0 0 0 0] ------- [6:255 5:255 254 3] 4 [0 2] [1 2 4 5->6] [0 0 0 0->0]
r 15.134381732 _5_ RTR  --- 21 DSR 52 [13a 5 7 800] ------- [6:255 5:255 253 5] 3 [0 2] [1 2 3 5->6] [0 0 0 0->0]
s 15.136022132 _0_ AGT  --- 27 cbr 512 [0 0 0 0] ------- [0:0 10:0 32 0] [1] 0 0
r 15.136022132 _0_ RTR  --- 27 cbr 512 [0 0 0 0] ------- [0:0 10:0 32 0] [1] 0 0
SFESTs 15.136022132 _0_ 27 [0 -> 10] 1(1) to 1 [0 |1 7 10 ]
s 15.136022132 _0_ RTR  --- 27 cbr 556 [0 0 0 0] ------- [0:0 10:0 32 1] [1] 0 0
r 15.140375732 _4_ RTR  --- 4 cbr 552 [13a 4 5 800] ------- [5:0 6:0 32 4] [0] 1 0
f 15.140375732 _4_ RTR  --- 4 cbr 552 [13a 4 5 800] ------- [5:0 6:0 31 6] [0] 1 0
r 15.146432439 _1_ RTR  --- 27 cbr 556 [13a 1 0 800] ------- [0:0 10:0 32 1] [1] 1 0
f 15.146432439 _1_ RTR  --- 27 cbr 556 [13a 1 0 800] ------- [0:0 10:0 31 7] [1] 1 0
s 15.150172087 _5_ AGT  --- 28 cbr 512 [0 0 0 0] ------- [5:0 6:0 32 0] [2] 0 0
r 15.150172087 _5_ RTR  --- 28 cbr 512 [0 0 0 0] ------- [5:0 6:0 32 0] [2] 0 0
SFESTs 15.150172087 _5_ 28 [5 -> 6] 1(1) to 4 [5 |4 6 ]
s 15.150172087 _5_ RTR  --- 28 cbr 552 [0 0 0 0] ------- [5:0 6:0 32 4] [2] 0 0
r 15.152438439 _7_ RTR  --- 27 cbr 556 [13a 7 1 800] ------- [0:0 10:0 31 7] [1] 2 0
f 15.152438439 _7_ RTR  --- 27 cbr 556 [13a 7 1 800] ------- [0:0 10:0 30 10] [1] 2 0
r 15.158453009 _6_ RTR  --- 4 cbr 552 [13a 6 4 800] ------- [5:0 6:0 31 6] [0] 2 0
r 15.158453009 _6_ AGT  --- 4 cbr 512 [13a 6 4 800] ------- [5:0 6:0 31 6] [0] 2 0
r 15.160631009 _0_ RTR  --- 25 DSR 60 [13a 0 6 800] ------- [6:255 5:255 254 0] 4 [0 2] [1 2 4 5->6] [0 0 0 0->0]
f 15.160631009 _0_ RTR  --- 25 DSR 60 [13a 0 6 800] ------- [6:255 5:255 253 1] 4 [0 2] [1 2 4 5->6] [0 0 0 0->0]
s 15.162486750 _5_ RTR  --- 13 cbr 552 [0 0 0 0] ------- [5:0 6:0 32 4] [1] 0 0
r 15.162869009 _1_ RTR  --- 25 DSR 60 [13a 1 0 800] ------- [6:255 5:255 253 1] 4 [0 2] [1 2 4 5->6] [0 0 0 0->0]
f 15.162869009 _1_ RTR  --- 25 DSR 60 [13a 1 0 800] ------- [6:255 5:255 252 5] 4 [0 2] [1 2 4 5->6] [0 0 0 0->0]
r 15.164827245 _5_ RTR  --- 25 DSR 60 [13a 5 1 800] ------- [6:255 5:255 252 5] 4 [0 2] [1 2 4 5->6] [0 0 0 0->0]
r 15.170873990 _10_ RTR  --- 27 cbr 556 [13a a 7 800] ------- [0:0 10:0 30 10] [1] 3 0
r 15.170873990 _10_ AGT  --- 27 cbr 512 [13a a 7 800] ------- [0:0 10:0 30 10] [1] 3 0
r 15.177173192 _4_ RTR  --- 28 cbr 552 [13a 4 5 800] ------- [5:0 6:0 32 4] [2] 1 0
f 15.177173192 _4_ RTR  --- 28 cbr 552 [13a 4 5 800] ------- [5:0 6:0 31 6] [2] 1 0
r 15.179240900 _3_ RTR  --- 26 DSR 60 [13a 3 6 800] ------- [6:255 5:255 254 3] 4 [0 2] [1 2 4 5->6] [0 0 0 0->0]
f 15.179240900 _3_ RTR  --- 26 DSR 60 [13a 3 6 800] ------- [6:255 5:255 253 7] 4 [0 2] [1 2 4 5->6] [0 0 0 0->0]
r 15.181179136 _7_ RTR  --- 26 DSR 60 [13a 7 3 800] ------- [6:255 5:255 253 7] 4 [0 2] [1 2 4 5->6] [0 0 0 0->0]
f 15.181179136 _7_ RTR  --- 26 DSR 60 [13a 7 3 800] ------- [6:255 5:255 252 5] 4 [0 2] [1 2 4 5->6] [0 0 0 0->0]
r 15.183297372 _5_ RTR  --- 26 DSR 60 [13a 5 7 800] ------- [6:255 5:255 252 5] 4 [0 2] [1 2 4 5->6] [0 0 0 0->0]
r 15.189192275 _6_ RTR  --- 28 cbr 552 [13a 6 4 800] ------- [5:0 6:0 31 6] [2] 2 0
r 15.189192275 _6_ AGT  --- 28 cbr 512 [13a 6 4 800] ------- [5:0 6:0 31 6] [2] 2 0
r 15.195471649 _4_ RTR  --- 13 cbr 552 [13a 4 5 800] ------- [5:0 6:0 32 4] [1] 1 0
f 15.195471649 _4_ RTR  --- 13 cbr 552 [13a 4 5 800] ------- [5:0 6:0 31 6] [1] 1 0
r 15.201345885 _6_ RTR  --- 13 cbr 552 [13a 6 4 800] ------- [5:0 6:0 31 6] [1] 2 0
r 15.201345885 _6_ AGT  --- 13 cbr 512 [13a 6 4 800] ------- [5:0 6:0 31 6] [1] 2 0
r 15.203646342 _6_ RTR  --- 15 DSR 64 [13a 6 9 800] ------- [9:255 1:255 255 6] 4 [0 2] [1 2 5 1->10] [0 0 0 0->0]
f 15.203646342 _6_ RTR  --- 15 DSR 64 [13a 6 9 800] ------- [9:255 1:255 254 7] 4 [0 2] [1 2 5 1->10] [0 0 0 0->0]
r 15.206017008 _10_ RTR  --- 24 DSR 64 [13a a 9 800] ------- [9:255 5:255 255 10] 4 [0 2] [1 2 5 5->6] [0 0 0 0->0]
f 15.206017008 _10_ RTR  --- 24 DSR 64 [13a a 9 800] ------- [9:255 5:255 254 7] 4 [0 2] [1 2 5 5->6] [0 0 0 0->0]
r 15.207943675 _6_ RTR  --- 20 DSR 56 [13a 6 9 800] ------- [9:255 0:255 255 6] 3 [0 2] [1 2 4 0->10] [0 0 0 0->0]
f 15.207943675 _6_ RTR  --- 20 DSR 56 [13a 6 9 800] ------- [9:255 0:255 254 0] 3 [0 2] [1 2 4 0->10] [0 0 0 0->0]
r 15.210093675 _7_ RTR  --- 15 DSR 64 [13a 7 6 800] ------- [9:255 1:255 254 7] 4 [0 2] [1 2 5 1->10] [0 0 0 0->0]
f 15.210093675 _7_ RTR  --- 15 DSR 64 [13a 7 6 800] ------- [9:255 1:255 253 1] 4 [0 2] [1 2 5 1->10] [0 0 0 0->0]
r 15.212133951 _7_ RTR  --- 24 DSR 64 [13a 7 a 800] ------- [9:255 5:255 254 7] 4 [0 2] [1 2 5 5->6] [0 0 0 0->0]
f 15.212133951 _7_ RTR  --- 24 DSR 64 [13a 7 a 800] ------- [9:255 5:255 253 5] 4 [0 2] [1 2 5 5->6] [0 0 0 0->0]
r 15.214510227 _0_ RTR  --- 20 DSR 56 [13a 0 6 800] ------- [9:255 0:255 254 0] 3 [0 2] [1 2 4 0->10] [0 0 0 0->0]
r 15.216925170 _1_ RTR  --- 15 DSR 64 [13a 1 7 800] ------- [9:255 1:255 253 1] 4 [0 2] [1 2 5 1->10] [0 0 0 0->0]
s 15.217426554 _1_ AGT  --- 29 cbr 512 [0 0 0 0] ------- [1:0 10:1 32 0] [2] 0 0
r 15.217426554 _1_ RTR  --- 29 cbr 512 [0 0 0 0] ------- [1:0 10:1 32 0] [2] 0 0
SFESTs 15.217426554 _1_ 29 [1 -> 10] 1(1) to 7 [1 |7 10 ]
s 15.217426554 _1_ RTR  --- 29 cbr 552 [0 0 0 0] ------- [1:0 10:1 32 7] [2] 0 0
r 15.223056554 _7_ RTR  --- 29 cbr 552 [13a 7 1 800] ------- [1:0 10:1 32 7] [2] 1 0
f 15.223056554 _7_ RTR  --- 29 cbr 552 [13a 7 1 800] ------- [1:0 10:1 31 10] [2] 1 0
r 15.225326790 _5_ RTR  --- 24 DSR 64 [13a 5 7 800] ------- [9:255 5:255 253 5] 4 [0 2] [1 2 5 5->6] [0 0 0 0->0]
r 15.231321535 _10_ RTR  --- 29 cbr 552 [13a a 7 800] ------- [1:0 10:1 31 10] [2] 2 0
r 15.231321535 _10_ AGT  --- 29 cbr 512 [13a a 7 800] ------- [1:0 10:1 31 10] [2] 2 0
r 15.235241811 _8_ RTR  --- 10 DSR 64 [13a 8 b 800] ------- [11:255 1:255 255 8] 4 [0 2] [1 2 5 1->10] [0 0 0 0->0]
f 15.235241811 _8_ RTR  --- 10 DSR 64 [13a 8 b 800] ------- [11:255 1:255 254 7] 4 [0 2] [1 2 5 1->10] [0 0 0 0->0]
r 15.237099145 _8_ RTR  --- 12 DSR 92 [0 ffffffff b 800] ------- [5:255 6:255 32 0] 4 [1 2] [0 2 0 0->16] [0 0 0 0->0]
r 15.237099145 _10_ RTR  --- 12 DSR 92 [0 ffffffff b 800] ------- [5:255 6:255 32 0] 4 [1 2] [0 2 0 0->16] [0 0 0 0->0]
r 15.238875145 _7_ RTR  --- 10 DSR 64 [13a 7 8 800] ------- [11:255 1:255 254 7] 4 [0 2] [1 2 5 1->10] [0 0 0 0->0]
f 15.238875145 _7_ RTR  --- 10 DSR 64 [13a 7 8 800] ------- [11:255 1:255 253 1] 4 [0 2] [1 2 5 1->10] [0 0 0 0->0]
r 15.241305145 _1_ RTR  --- 10 DSR 64 [13a 1 7 800] ------- [11:255 1:255 253 1] 4 [0 2] [1 2 5 1->10] [0 0 0 0->0]
s 15.257177894 _0_ AGT  --- 30 cbr 512 [0 0 0 0] ------- [0:0 10:0 32 0] [2] 0 0
r 15.257177894 _0_ RTR  --- 30 cbr 512 [0 0 0 0] ------- [0:0 10:0 32 0] [2] 0 0
SFESTs 15.257177894 _0_ 30 [0 -> 10] 1(1) to 1 [0 |1 7 10 ]
s 15.257177894 _0_ RTR  --- 30 cbr 556 [0 0 0 0] ------- [0:0 10:0 32 1] [2] 0 0
r 15.263379894 _1_ RTR  --- 30 cbr 556 [13a 1 0 800] ------- [0:0 10:0 32 1] [2] 1 0
f 15.263379894 _1_ RTR  --- 30 cbr 556 [13a 1 0 800] ------- [0:0 10:0 31 7] [2] 1 0
r 15.269305894 _7_ RTR  --- 30 cbr 556 [13a 7 1 800] ------- [0:0 10:0 31 7] [2] 2 0
f 15.269305894 _7_ RTR  --- 30 cbr 556 [13a 7 1 800] ------- [0:0 10:0 30 10] [2] 2 0
r 15.275591894 _10_ RTR  --- 30 cbr 556 [13a a 7 800] ------- [0:0 10:0 30 10] [2] 3 0