n -t * -s 0  -x 100 -y 0 -Z 0 -z 30  -v circle -c black
n -t * -s 1  -x 300 -y 0 -Z 0 -z 30  -v circle -c black
n -t * -s 2  -x 500 -y 0 -Z 0 -z 30  -v circle -c black
n -t * -s 3  -x 100 -y 100 -Z 0 -z 30  -v circle -c black
n -t * -s 4  -x 300 -y 100 -Z 0 -z 30  -v circle -c black
n -t * -s 5  -x 500 -y 100 -Z 0 -z 30  -v circle -c black
n -t * -s 6  -x 100 -y 200 -Z 0 -z 30  -v circle -c black
n -t * -s 7  -x 300 -y 200 -Z 0 -z 30  -v circle -c black
n -t * -s 8  -x 500 -y 200 -Z 0 -z 30  -v circle -c black
n -t * -s 9  -x 100 -y 300 -Z 0 -z 30  -v circle -c black
n -t * -s 10  -x 300 -y 300 -Z 0 -z 30  -v circle -c black
n -t * -s 11  -x 500 -y 300 -Z 0 -z 30  -v circle -c black
n -t * -s 12  -x 100 -y 400 -Z 0 -z 30  -v circle -c black
n -t * -s 13  -x 300 -y 400 -Z 0 -z 30  -v circle -c black
n -t * -s 14  -x 500 -y 400 -Z 0 -z 30  -v circle -c black
n -t * -s 15  -x 100 -y 500 -Z 0 -z 30  -v circle -c black
n -t * -s 16  -x 300 -y 500 -Z 0 -z 30  -v circle -c black
n -t * -s 17  -x 500 -y 500 -Z 0 -z 30  -v circle -c black
n -t * -s 18  -x 400 -y 500 -Z 0 -z 30  -v circle -c black
n -t * -s 19  -x 200 -y 500 -Z 0 -z 30  -v circle -c black
n -t * -s 20  -x 400 -y 400 -Z 0 -z 30  -v circle -c black
n -t * -s 21  -x 200 -y 400 -Z 0 -z 30  -v circle -c black
n -t * -s 22  -x 400 -y 300 -Z 0 -z 30  -v circle -c black
n -t * -s 23  -x 200 -y 300 -Z 0 -z 30  -v circle -c black
n -t * -s 24  -x 400 -y 200 -Z 0 -z 30  -v circle -c black
n -t * -s 25  -x 200 -y 200 -Z 0 -z 30  -v circle -c black
n -t * -s 26  -x 400 -y 100 -Z 0 -z 30  -v circle -c black
n -t * -s 27  -x 200 -y 100 -Z 0 -z 30  -v circle -c black
n -t * -s 28  -x 400 -y 0 -Z 0 -z 30  -v circle -c black
V -t * -v 1.0a5 -a 0
W -t * -x 500 -y 500
A -t * -n 1 -p 0 -o 0xffffffff -c 31 -a 1
A -t * -h 1 -m 2147483647 -s 0
+ -t 0.000000000 -s 0 -d -1 -p WCETT -e 284 -c 2 -a 0 -i 0 -k RTR 
- -t 0.000000000 -s 0 -d -1 -p WCETT -e 284 -c 2 -a 0 -i 0 -k RTR
h -t 0.000000000 -s 0 -d -1 -p WCETT -e 284 -c 2 -a 0 -i 0 -k RTR
+ -t 0.000000000 -s 1 -d -1 -p WCETT -e 284 -c 2 -a 0 -i 0 -k RTR 
- -t 0.000000000 -s 1 -d -1 -p WCETT -e 284 -c 2 -a 0 -i 0 -k RTR
h -t 0.000000000 -s 1 -d -1 -p WCETT -e 284 -c 2 -a 0 -i 0 -k RTR
+ -t 0.000000000 -s 2 -d -1 -p WCETT -e 284 -c 2 -a 0 -i 0 -k RTR 
- -t 0.000000000 -s 2 -d -1 -p WCETT -e 284 -c 2 -a 0 -i 0 -k RTR
h -t 0.000000000 -s 2 -d -1 -p WCETT -e 284 -c 2 -a 0 -i 0 -k RTR
+ -t 0.000000000 -s 3 -d -1 -p WCETT -e 284 -c 2 -a 0 -i 0 -k RTR 
- -t 0.000000000 -s 3 -d -1 -p WCETT -e 284 -c 2 -a 0 -i 0 -k RTR
h -t 0.000000000 -s 3 -d -1 -p WCETT -e 284 -c 2 -a 0 -i 0 -k RTR
+ -t 0.000000000 -s 4 -d -1 -p WCETT -e 284 -c 2 -a 0 -i 0 -k RTR 
- -t 0.000000000 -s 4 -d -1 -p WCETT -e 284 -c 2 -a 0 -i 0 -k RTR
h -t 0.000000000 -s 4 -d -1 -p WCETT -e 284 -c 2 -a 0 -i 0 -k RTR
+ -t 0.000000000 -s 5 -d -1 -p WCETT -e 284 -c 2 -a 0 -i 0 -k RTR 
- -t 0.000000000 -s 5 -d -1 -p WCETT -e 284 -c 2 -a 0 -i 0 -k RTR
h -t 0.000000000 -s 5 -d -1 -p WCETT -e 284 -c 2 -a 0 -i 0 -k RTR
+ -t 0.000000000 -s 6 -d -1 -p WCETT -e 284 -c 2 -a 0 -i 0 -k RTR 
- -t 0.000000000 -s 6 -d -1 -p WCETT -e 284 -c 2 -a 0 -i 0 -k RTR
h -t 0.000000000 -s 6 -d -1 -p WCETT -e 284 -c 2 -a 0 -i 0 -k RTR
+ -t 0.000000000 -s 7 -d -1 -p WCETT -e 284 -c 2 -a 0 -i 0 -k RTR 
- -t 0.000000000 -s 7 -d -1 -p WCETT -e 284 -c 2 -a 0 -i 0 -k RTR
h -t 0.000000000 -s 7 -d -1 -p WCETT -e 284 -c 2 -a 0 -i 0 -k RTR
+ -t 0.000000000 -s 8 -d -1 -p WCETT -e 284 -c 2 -a 0 -i 0 -k RTR 
- -t 0.000000000 -s 8 -d -1 -p WCETT -e 284 -c 2 -a 0 -i 0 -k RTR
h -t 0.000000000 -s 8 -d -1 -p WCETT -e 284 -c 2 -a 0 -i 0 -k RTR
+ -t 0.000000000 -s 9 -d -1 -p WCETT -e 284 -c 2 -a 0 -i 0 -k RTR 
- -t 0.000000000 -s 9 -d -1 -p WCETT -e 284 -c 2 -a 0 -i 0 -k RTR
h -t 0.000000000 -s 9 -d -1 -p WCETT -e 284 -c 2 -a 0 -i 0 -k RTR
+ -t 0.000000000 -s 10 -d -1 -p WCETT -e 284 -c 2 -a 0 -i 0 -k RTR 
- -t 0.000000000 -s 10 -d -1 -p WCETT -e 284 -c 2 -a 0 -i 0 -k RTR
h -t 0.000000000 -s 10 -d -1 -p WCETT -e 284 -c 2 -a 0 -i 0 -k RTR
+ -t 0.000000000 -s 11 -d -1 -p WCETT -e 284 -c 2 -a 0 -i 0 -k RTR 
- -t 0.000000000 -s 11 -d -1 -p WCETT -e 284 -c 2 -a 0 -i 0 -k RTR
h -t 0.000000000 -s 11 -d -1 -p WCETT -e 284 -c 2 -a 0 -i 0 -k RTR
+ -t 0.000000000 -s 12 -d -1 -p WCETT -e 284 -c 2 -a 0 -i 0 -k RTR 
- -t 0.000000000 -s 12 -d -1 -p WCETT -e 284 -c 2 -a 0 -i 0 -k RTR
h -t 0.000000000 -s 12 -d -1 -p WCETT -e 284 -c 2 -a 0 -i 0 -k RTR
+ -t 0.000000000 -s 13 -d -1 -p WCETT -e 284 -c 2 -a 0 -i 0 -k RTR 
- -t 0.000000000 -s 13 -d -1 -p WCETT -e 284 -c 2 -a 0 -i 0 -k RTR
h -t 0.000000000 -s 13 -d -1 -p WCETT -e 284 -c 2 -a 0 -i 0 -k RTR
+ -t 0.000000000 -s 14 -d -1 -p WCETT -e 284 -c 2 -a 0 -i 0 -k RTR 
- -t 0.000000000 -s 14 -d -1 -p WCETT -e 284 -c 2 -a 0 -i 0 -k RTR
h -t 0.000000000 -s 14 -d -1 -p WCETT -e 284 -c 2 -a 0 -i 0 -k RTR
+ -t 0.000000000 -s 15 -d -1 -p WCETT -e 284 -c 2 -a 0 -i 0 -k RTR 
- -t 0.000000000 -s 15 -d -1 -p WCETT -e 284 -c 2 -a 0 -i 0 -k RTR
h -t 0.000000000 -s 15 -d -1 -p WCETT -e 284 -c 2 -a 0 -i 0 -k RTR
+ -t 0.000000000 -s 16 -d -1 -p WCETT -e 284 -c 2 -a 0 -i 0 -k RTR 
- -t 0.000000000 -s 16 -d -1 -p WCETT -e 284 -c 2 -a 0 -i 0 -k RTR
h -t 0.000000000 -s 16 -d -1 -p WCETT -e 284 -c 2 -a 0 -i 0 -k RTR
+ -t 0.000000000 -s 17 -d -1 -p WCETT -e 284 -c 2 -a 0 -i 0 -k RTR 
- -t 0.000000000 -s 17 -d -1 -p WCETT -e 284 -c 2 -a 0 -i 0 -k RTR
h -t 0.000000000 -s 17 -d -1 -p WCETT -e 284 -c 2 -a 0 -i 0 -k RTR
+ -t 0.000000000 -s 18 -d -1 -p WCETT -e 284 -c 2 -a 0 -i 0 -k RTR 
- -t 0.000000000 -s 18 -d -1 -p WCETT -e 284 -c 2 -a 0 -i 0 -k RTR
h -t 0.000000000 -s 18 -d -1 -p WCETT -e 284 -c 2 -a 0 -i 0 -k RTR
+ -t 0.000000000 -s 19 -d -1 -p WCETT -e 284 -c 2 -a 0 -i 0 -k RTR 
- -t 0.000000000 -s 19 -d -1 -p WCETT -e 284 -c 2 -a 0 -i 0 -k RTR
h -t 0.000000000 -s 19 -d -1 -p WCETT -e 284 -c 2 -a 0 -i 0 -k RTR
+ -t 0.000000000 -s 20 -d -1 -p WCETT -e 284 -c 2 -a 0 -i 0 -k RTR 
- -t 0.000000000 -s 20 -d -1 -p WCETT -e 284 -c 2 -a 0 -i 0 -k RTR
h -t 0.000000000 -s 20 -d -1 -p WCETT -e 284 -c 2 -a 0 -i 0 -k RTR
+ -t 0.000000000 -s 21 -d -1 -p WCETT -e 284 -c 2 -a 0 -i 0 -k RTR 
- -t 0.000000000 -s 21 -d -1 -p WCETT -e 284 -c 2 -a 0 -i 0 -k RTR
h -t 0.000000000 -s 21 -d -1 -p WCETT -e 284 -c 2 -a 0 -i 0 -k RTR
+ -t 0.000000000 -s 22 -d -1 -p WCETT -e 284 -c 2 -a 0 -i 0 -k RTR 
- -t 0.000000000 -s 22 -d -1 -p WCETT -e 284 -c 2 -a 0 -i 0 -k RTR
h -t 0.000000000 -s 22 -d -1 -p WCETT -e 284 -c 2 -a 0 -i 0 -k RTR
+ -t 0.000000000 -s 23 -d -1 -p WCETT -e 284 -c 2 -a 0 -i 0 -k RTR 
- -t 0.000000000 -s 23 -d -1 -p WCETT -e 284 -c 2 -a 0 -i 0 -k RTR
h -t 0.000000000 -s 23 -d -1 -p WCETT -e 284 -c 2 -a 0 -i 0 -k RTR
+ -t 0.000000000 -s 24 -d -1 -p WCETT -e 284 -c 2 -a 0 -i 0 -k RTR 
- -t 0.000000000 -s 24 -d -1 -p WCETT -e 284 -c 2 -a 0 -i 0 -k RTR
h -t 0.000000000 -s 24 -d -1 -p WCETT -e 284 -c 2 -a 0 -i 0 -k RTR
+ -t 0.000000000 -s 25 -d -1 -p WCETT -e 284 -c 2 -a 0 -i 0 -k RTR 
- -t 0.000000000 -s 25 -d -1 -p WCETT -e 284 -c 2 -a 0 -i 0 -k RTR
h -t 0.000000000 -s 25 -d -1 -p WCETT -e 284 -c 2 -a 0 -i 0 -k RTR
+ -t 0.000000000 -s 26 -d -1 -p WCETT -e 284 -c 2 -a 0 -i 0 -k RTR 
- -t 0.000000000 -s 26 -d -1 -p WCETT -e 284 -c 2 -a 0 -i 0 -k RTR
h -t 0.000000000 -s 26 -d -1 -p WCETT -e 284 -c 2 -a 0 -i 0 -k RTR
+ -t 0.000000000 -s 27 -d -1 -p WCETT -e 284 -c 2 -a 0 -i 0 -k RTR 
- -t 0.000000000 -s 27 -d -1 -p WCETT -e 284 -c 2 -a 0 -i 0 -k RTR
h -t 0.000000000 -s 27 -d -1 -p WCETT -e 284 -c 2 -a 0 -i 0 -k RTR
+ -t 0.000000000 -s 28 -d -1 -p WCETT -e 284 -c 2 -a 0 -i 0 -k RTR 
- -t 0.000000000 -s 28 -d -1 -p WCETT -e 284 -c 2 -a 0 -i 0 -k RTR
h -t 0.000000000 -s 28 -d -1 -p WCETT -e 284 -c 2 -a 0 -i 0 -k RTR
r -t 0.002788333 -s 2 -d -1 -p WCETT -e 284 -c 2 -a 0 -i 0 -k RTR
r -t 0.002788333 -s 26 -d -1 -p WCETT -e 284 -c 2 -a 0 -i 0 -k RTR
r -t 0.002788333 -s 8 -d -1 -p WCETT -e 284 -c 2 -a 0 -i 0 -k RTR
r -t 0.002788471 -s 28 -d -1 -p WCETT -e 284 -c 2 -a 0 -i 0 -k RTR
r -t 0.002788471 -s 24 -d -1 -p WCETT -e 284 -c 2 -a 0 -i 0 -k RTR
r -t 0.002788667 -s 4 -d -1 -p WCETT -e 284 -c 2 -a 0 -i 0 -k RTR
r -t 0.002788667 -s 11 -d -1 -p WCETT -e 284 -c 2 -a 0 -i 0 -k RTR
r -t 0.002788745 -s 1 -d -1 -p WCETT -e 284 -c 2 -a 0 -i 0 -k RTR
r -t 0.005926805 -s 26 -d -1 -p WCETT -e 284 -c 2 -a 0 -i 0 -k RTR
r -t 0.005926805 -s 1 -d -1 -p WCETT -e 284 -c 2 -a 0 -i 0 -k RTR
r -t 0.005926805 -s 2 -d -1 -p WCETT -e 284 -c 2 -a 0 -i 0 -k RTR
r -t 0.005926943 -s 4 -d -1 -p WCETT -e 284 -c 2 -a 0 -i 0 -k RTR
r -t 0.005926943 -s 5 -d -1 -p WCETT -e 284 -c 2 -a 0 -i 0 -k RTR
r -t 0.005927138 -s 24 -d -1 -p WCETT -e 284 -c 2 -a 0 -i 0 -k RTR
r -t 0.005927217 -s 7 -d -1 -p WCETT -e 284 -c 2 -a 0 -i 0 -k RTR
r -t 0.005927217 -s 27 -d -1 -p WCETT -e 284 -c 2 -a 0 -i 0 -k RTR
r -t 0.005927217 -s 8 -d -1 -p WCETT -e 284 -c 2 -a 0 -i 0 -k RTR
r -t 0.008705138 -s 4 -d -1 -p WCETT -e 284 -c 2 -a 0 -i 0 -k RTR
r -t 0.008705138 -s 28 -d -1 -p WCETT -e 284 -c 2 -a 0 -i 0 -k RTR
r -t 0.008705276 -s 27 -d -1 -p WCETT -e 284 -c 2 -a 0 -i 0 -k RTR
r -t 0.008705276 -s 26 -d -1 -p WCETT -e 284 -c 2 -a 0 -i 0 -k RTR
r -t 0.008705471 -s 0 -d -1 -p WCETT -e 284 -c 2 -a 0 -i 0 -k RTR
r -t 0.008705471 -s 7 -d -1 -p WCETT -e 284 -c 2 -a 0 -i 0 -k RTR
r -t 0.008705471 -s 2 -d -1 -p WCETT -e 284 -c 2 -a 0 -i 0 -k RTR
r -t 0.008705550 -s 25 -d -1 -p WCETT -e 284 -c 2 -a 0 -i 0 -k RTR
r -t 0.008705550 -s 3 -d -1 -p WCETT -e 284 -c 2 -a 0 -i 0 -k RTR
r -t 0.008705550 -s 24 -d -1 -p WCETT -e 284 -c 2 -a 0 -i 0 -k RTR
r -t 0.008705550 -s 5 -d -1 -p WCETT -e 284 -c 2 -a 0 -i 0 -k RTR
r -t 0.011563805 -s 28 -d -1 -p WCETT -e 284 -c 2 -a 0 -i 0 -k RTR
r -t 0.011563805 -s 5 -d -1 -p WCETT -e 284 -c 2 -a 0 -i 0 -k RTR
r -t 0.011563943 -s 26 -d -1 -p WCETT -e 284 -c 2 -a 0 -i 0 -k RTR
r -t 0.011564138 -s 1 -d -1 -p WCETT -e 284 -c 2 -a 0 -i 0 -k RTR
r -t 0.011564138 -s 8 -d -1 -p WCETT -e 284 -c 2 -a 0 -i 0 -k RTR
r -t 0.011848629 -s 15 -d -1 -p WCETT -e 284 -c 2 -a 0 -i 0 -k RTR
r -t 0.011848767 -s 19 -d -1 -p WCETT -e 284 -c 2 -a 0 -i 0 -k RTR
r -t 0.014887100 -s 15 -d -1 -p WCETT -e 284 -c 2 -a 0 -i 0 -k RTR
r -t 0.014887100 -s 21 -d -1 -p WCETT -e 284 -c 2 -a 0 -i 0 -k RTR
r -t 0.014887100 -s 16 -d -1 -p WCETT -e 284 -c 2 -a 0 -i 0 -k RTR
r -t 0.014887238 -s 12 -d -1 -p WCETT -e 284 -c 2 -a 0 -i 0 -k RTR
r -t 0.014887238 -s 13 -d -1 -p WCETT -e 284 -c 2 -a 0 -i 0 -k RTR
r -t 0.014887434 -s 23 -d -1 -p WCETT -e 284 -c 2 -a 0 -i 0 -k RTR
r -t 0.014887434 -s 18 -d -1 -p WCETT -e 284 -c 2 -a 0 -i 0 -k RTR
r -t 0.014887512 -s 9 -d -1 -p WCETT -e 284 -c 2 -a 0 -i 0 -k RTR
r -t 0.014887512 -s 10 -d -1 -p WCETT -e 284 -c 2 -a 0 -i 0 -k RTR
r -t 0.014887512 -s 20 -d -1 -p WCETT -e 284 -c 2 -a 0 -i 0 -k RTR
r -t 0.017645767 -s 21 -d -1 -p WCETT -e 284 -c 2 -a 0 -i 0 -k RTR
r -t 0.017645767 -s 9 -d -1 -p WCETT -e 284 -c 2 -a 0 -i 0 -k RTR
r -t 0.017645767 -s 25 -d -1 -p WCETT -e 284 -c 2 -a 0 -i 0 -k RTR
r -t 0.017645767 -s 10 -d -1 -p WCETT -e 284 -c 2 -a 0 -i 0 -k RTR
r -t 0.017645905 -s 12 -d -1 -p WCETT -e 284 -c 2 -a 0 -i 0 -k RTR
r -t 0.017645905 -s 6 -d -1 -p WCETT -e 284 -c 2 -a 0 -i 0 -k RTR
r -t 0.017645905 -s 7 -d -1 -p WCETT -e 284 -c 2 -a 0 -i 0 -k RTR
r -t 0.017645905 -s 13 -d -1 -p WCETT -e 284 -c 2 -a 0 -i 0 -k RTR
r -t 0.017646100 -s 19 -d -1 -p WCETT -e 284 -c 2 -a 0 -i 0 -k RTR
r -t 0.017646100 -s 27 -d -1 -p WCETT -e 284 -c 2 -a 0 -i 0 -k RTR
r -t 0.017646100 -s 22 -d -1 -p WCETT -e 284 -c 2 -a 0 -i 0 -k RTR
r -t 0.017646179 -s 15 -d -1 -p WCETT -e 284 -c 2 -a 0 -i 0 -k RTR
r -t 0.017646179 -s 3 -d -1 -p WCETT -e 284 -c 2 -a 0 -i 0 -k RTR
r -t 0.017646179 -s 4 -d -1 -p WCETT -e 284 -c 2 -a 0 -i 0 -k RTR
r -t 0.017646179 -s 16 -d -1 -p WCETT -e 284 -c 2 -a 0 -i 0 -k RTR
r -t 0.017646179 -s 20 -d -1 -p WCETT -e 284 -c 2 -a 0 -i 0 -k RTR
r -t 0.017646179 -s 24 -d -1 -p WCETT -e 284 -c 2 -a 0 -i 0 -k RTR
r -t 0.020424238 -s 4 -d -1 -p WCETT -e 284 -c 2 -a 0 -i 0 -k RTR
r -t 0.020424238 -s 25 -d -1 -p WCETT -e 284 -c 2 -a 0 -i 0 -k RTR
r -t 0.020424238 -s 10 -d -1 -p WCETT -e 284 -c 2 -a 0 -i 0 -k RTR
r -t 0.020424238 -s 24 -d -1 -p WCETT -e 284 -c 2 -a 0 -i 0 -k RTR
r -t 0.020424376 -s 27 -d -1 -p WCETT -e 284 -c 2 -a 0 -i 0 -k RTR
r -t 0.020424376 -s 23 -d -1 -p WCETT -e 284 -c 2 -a 0 -i 0 -k RTR
r -t 0.020424376 -s 22 -d -1 -p WCETT -e 284 -c 2 -a 0 -i 0 -k RTR
r -t 0.020424376 -s 26 -d -1 -p WCETT -e 284 -c 2 -a 0 -i 0 -k RTR
r -t 0.020424572 -s 1 -d -1 -p WCETT -e 284 -c 2 -a 0 -i 0 -k RTR
r -t 0.020424572 -s 6 -d -1 -p WCETT -e 284 -c 2 -a 0 -i 0 -k RTR
r -t 0.020424572 -s 13 -d -1 -p WCETT -e 284 -c 2 -a 0 -i 0 -k RTR
r -t 0.020424572 -s 8 -d -1 -p WCETT -e 284 -c 2 -a 0 -i 0 -k RTR
r -t 0.020424650 -s 21 -d -1 -p WCETT -e 284 -c 2 -a 0 -i 0 -k RTR
r -t 0.020424650 -s 9 -d -1 -p WCETT -e 284 -c 2 -a 0 -i 0 -k RTR
r -t 0.020424650 -s 3 -d -1 -p WCETT -e 284 -c 2 -a 0 -i 0 -k RTR
r -t 0.020424650 -s 20 -d -1 -p WCETT -e 284 -c 2 -a 0 -i 0 -k RTR
r -t 0.020424650 -s 28 -d -1 -p WCETT -e 284 -c 2 -a 0 -i 0 -k RTR
r -t 0.020424650 -s 5 -d -1 -p WCETT -e 284 -c 2 -a 0 -i 0 -k RTR
r -t 0.020424650 -s 11 -d -1 -p WCETT -e 284 -c 2 -a 0 -i 0 -k RTR
r -t 0.023182710 -s 24 -d -1 -p WCETT -e 284 -c 2 -a 0 -i 0 -k RTR
r -t 0.023182710 -s 4 -d -1 -p WCETT -e 284 -c 2 -a 0 -i 0 -k RTR
r -t 0.023182710 -s 28 -d -1 -p WCETT -e 284 -c 2 -a 0 -i 0 -k RTR
r -t 0.023182710 -s 5 -d -1 -p WCETT -e 284 -c 2 -a 0 -i 0 -k RTR
r -t 0.023182848 -s 7 -d -1 -p WCETT -e 284 -c 2 -a 0 -i 0 -k RTR
r -t 0.023182848 -s 1 -d -1 -p WCETT -e 284 -c 2 -a 0 -i 0 -k RTR
r -t 0.023182848 -s 2 -d -1 -p WCETT -e 284 -c 2 -a 0 -i 0 -k RTR
r -t 0.023182848 -s 8 -d -1 -p WCETT -e 284 -c 2 -a 0 -i 0 -k RTR
r -t 0.023183043 -s 22 -d -1 -p WCETT -e 284 -c 2 -a 0 -i 0 -k RTR
r -t 0.023183043 -s 27 -d -1 -p WCETT -e 284 -c 2 -a 0 -i 0 -k RTR
r -t 0.023183122 -s 10 -d -1 -p WCETT -e 284 -c 2 -a 0 -i 0 -k RTR
r -t 0.023183122 -s 25 -d -1 -p WCETT -e 284 -c 2 -a 0 -i 0 -k RTR
r -t 0.023183122 -s 11 -d -1 -p WCETT -e 284 -c 2 -a 0 -i 0 -k RTR
r -t 0.025941043 -s 22 -d -1 -p WCETT -e 284 -c 2 -a 0 -i 0 -k RTR
r -t 0.025941043 -s 7 -d -1 -p WCETT -e 284 -c 2 -a 0 -i 0 -k RTR
r -t 0.025941043 -s 26 -d -1 -p WCETT -e 284 -c 2 -a 0 -i 0 -k RTR
r -t 0.025941043 -s 8 -d -1 -p WCETT -e 284 -c 2 -a 0 -i 0 -k RTR
r -t 0.025941181 -s 10 -d -1 -p WCETT -e 284 -c 2 -a 0 -i 0 -k RTR
r -t 0.025941181 -s 4 -d -1 -p WCETT -e 284 -c 2 -a 0 -i 0 -k RTR
r -t 0.025941181 -s 5 -d -1 -p WCETT -e 284 -c 2 -a 0 -i 0 -k RTR
r -t 0.025941181 -s 11 -d -1 -p WCETT -e 284 -c 2 -a 0 -i 0 -k RTR
r -t 0.025941376 -s 20 -d -1 -p WCETT -e 284 -c 2 -a 0 -i 0 -k RTR
r -t 0.025941376 -s 25 -d -1 -p WCETT -e 284 -c 2 -a 0 -i 0 -k RTR
r -t 0.025941376 -s 28 -d -1 -p WCETT -e 284 -c 2 -a 0 -i 0 -k RTR
r -t 0.025941455 -s 13 -d -1 -p WCETT -e 284 -c 2 -a 0 -i 0 -k RTR
r -t 0.025941455 -s 1 -d -1 -p WCETT -e 284 -c 2 -a 0 -i 0 -k RTR
r -t 0.025941455 -s 27 -d -1 -p WCETT -e 284 -c 2 -a 0 -i 0 -k RTR
r -t 0.025941455 -s 23 -d -1 -p WCETT -e 284 -c 2 -a 0 -i 0 -k RTR
r -t 0.025941455 -s 2 -d -1 -p WCETT -e 284 -c 2 -a 0 -i 0 -k RTR
r -t 0.025941455 -s 14 -d -1 -p WCETT -e 284 -c 2 -a 0 -i 0 -k RTR
r -t 0.028759514 -s 1 -d -1 -p WCETT -e 284 -c 2 -a 0 -i 0 -k RTR
r -t 0.028759514 -s 27 -d -1 -p WCETT -e 284 -c 2 -a 0 -i 0 -k RTR
r -t 0.028759514 -s 7 -d -1 -p WCETT -e 284 -c 2 -a 0 -i 0 -k RTR
r -t 0.028759514 -s 26 -d -1 -p WCETT -e 284 -c 2 -a 0 -i 0 -k RTR
r -t 0.028759652 -s 25 -d -1 -p WCETT -e 284 -c 2 -a 0 -i 0 -k RTR
r -t 0.028759652 -s 24 -d -1 -p WCETT -e 284 -c 2 -a 0 -i 0 -k RTR
r -t 0.028759652 -s 28 -d -1 -p WCETT -e 284 -c 2 -a 0 -i 0 -k RTR
r -t 0.028759848 -s 3 -d -1 -p WCETT -e 284 -c 2 -a 0 -i 0 -k RTR
r -t 0.028759848 -s 10 -d -1 -p WCETT -e 284 -c 2 -a 0 -i 0 -k RTR
r -t 0.028759848 -s 5 -d -1 -p WCETT -e 284 -c 2 -a 0 -i 0 -k RTR
r -t 0.028759926 -s 23 -d -1 -p WCETT -e 284 -c 2 -a 0 -i 0 -k RTR
r -t 0.028759926 -s 6 -d -1 -p WCETT -e 284 -c 2 -a 0 -i 0 -k RTR
r -t 0.028759926 -s 0 -d -1 -p WCETT -e 284 -c 2 -a 0 -i 0 -k RTR
r -t 0.028759926 -s 22 -d -1 -p WCETT -e 284 -c 2 -a 0 -i 0 -k RTR
r -t 0.028759926 -s 2 -d -1 -p WCETT -e 284 -c 2 -a 0 -i 0 -k RTR
r -t 0.028759926 -s 8 -d -1 -p WCETT -e 284 -c 2 -a 0 -i 0 -k RTR
r -t 0.031558260 -s 20 -d -1 -p WCETT -e 284 -c 2 -a 0 -i 0 -k RTR
r -t 0.031558260 -s 10 -d -1 -p WCETT -e 284 -c 2 -a 0 -i 0 -k RTR
r -t 0.031558260 -s 24 -d -1 -p WCETT -e 284 -c 2 -a 0 -i 0 -k RTR
r -t 0.031558260 -s 11 -d -1 -p WCETT -e 284 -c 2 -a 0 -i 0 -k RTR
r -t 0.031558398 -s 13 -d -1 -p WCETT -e 284 -c 2 -a 0 -i 0 -k RTR
r -t 0.031558398 -s 7 -d -1 -p WCETT -e 284 -c 2 -a 0 -i 0 -k RTR
r -t 0.031558398 -s 8 -d -1 -p WCETT -e 284 -c 2 -a 0 -i 0 -k RTR
r -t 0.031558398 -s 14 -d -1 -p WCETT -e 284 -c 2 -a 0 -i 0 -k RTR
r -t 0.031558593 -s 18 -d -1 -p WCETT -e 284 -c 2 -a 0 -i 0 -k RTR
r -t 0.031558593 -s 23 -d -1 -p WCETT -e 284 -c 2 -a 0 -i 0 -k RTR
r -t 0.031558593 -s 26 -d -1 -p WCETT -e 284 -c 2 -a 0 -i 0 -k RTR
r -t 0.031558672 -s 16 -d -1 -p WCETT -e 284 -c 2 -a 0 -i 0 -k RTR
r -t 0.031558672 -s 4 -d -1 -p WCETT -e 284 -c 2 -a 0 -i 0 -k RTR
r -t 0.031558672 -s 25 -d -1 -p WCETT -e 284 -c 2 -a 0 -i 0 -k RTR
r -t 0.031558672 -s 21 -d -1 -p WCETT -e 284 -c 2 -a 0 -i 0 -k RTR
r -t 0.031558672 -s 5 -d -1 -p WCETT -e 284 -c 2 -a 0 -i 0 -k RTR
r -t 0.031558672 -s 17 -d -1 -p WCETT -e 284 -c 2 -a 0 -i 0 -k RTR
r -t 0.034316593 -s 7 -d -1 -p WCETT -e 284 -c 2 -a 0 -i 0 -k RTR
r -t 0.034316593 -s 23 -d -1 -p WCETT -e 284 -c 2 -a 0 -i 0 -k RTR
r -t 0.034316593 -s 13 -d -1 -p WCETT -e 284 -c 2 -a 0 -i 0 -k RTR
r -t 0.034316731 -s 5 -d -1 -p WCETT -e 284 -c 2 -a 0 -i 0 -k RTR
r -t 0.034316731 -s 11 -d -1 -p WCETT -e 284 -c 2 -a 0 -i 0 -k RTR
r -t 0.034316731 -s 25 -d -1 -p WCETT -e 284 -c 2 -a 0 -i 0 -k RTR
r -t 0.034316731 -s 21 -d -1 -p WCETT -e 284 -c 2 -a 0 -i 0 -k RTR
r -t 0.034316926 -s 9 -d -1 -p WCETT -e 284 -c 2 -a 0 -i 0 -k RTR
r -t 0.034316926 -s 16 -d -1 -p WCETT -e 284 -c 2 -a 0 -i 0 -k RTR
r -t 0.034317005 -s 19 -d -1 -p WCETT -e 284 -c 2 -a 0 -i 0 -k RTR
r -t 0.034317005 -s 12 -d -1 -p WCETT -e 284 -c 2 -a 0 -i 0 -k RTR
r -t 0.034317005 -s 6 -d -1 -p WCETT -e 284 -c 2 -a 0 -i 0 -k RTR
r -t 0.034317005 -s 8 -d -1 -p WCETT -e 284 -c 2 -a 0 -i 0 -k RTR
r -t 0.034317064 -s 2 -d -1 -p WCETT -e 284 -c 2 -a 0 -i 0 -k RTR
r -t 0.034317143 -s 10 -d -1 -p WCETT -e 284 -c 2 -a 0 -i 0 -k RTR
r -t 0.037460064 -s 3 -d -1 -p WCETT -e 284 -c 2 -a 0 -i 0 -k RTR
r -t 0.037460064 -s 9 -d -1 -p WCETT -e 284 -c 2 -a 0 -i 0 -k RTR
r -t 0.037460064 -s 25 -d -1 -p WCETT -e 284 -c 2 -a 0 -i 0 -k RTR
r -t 0.037460203 -s 23 -d -1 -p WCETT -e 284 -c 2 -a 0 -i 0 -k RTR
r -t 0.037460203 -s 27 -d -1 -p WCETT -e 284 -c 2 -a 0 -i 0 -k RTR
r -t 0.037460398 -s 0 -d -1 -p WCETT -e 284 -c 2 -a 0 -i 0 -k RTR
r -t 0.037460398 -s 12 -d -1 -p WCETT -e 284 -c 2 -a 0 -i 0 -k RTR
r -t 0.037460398 -s 7 -d -1 -p WCETT -e 284 -c 2 -a 0 -i 0 -k RTR
r -t 0.037460477 -s 21 -d -1 -p WCETT -e 284 -c 2 -a 0 -i 0 -k RTR
r -t 0.037460477 -s 4 -d -1 -p WCETT -e 284 -c 2 -a 0 -i 0 -k RTR
r -t 0.037460477 -s 10 -d -1 -p WCETT -e 284 -c 2 -a 0 -i 0 -k RTR
r -t 0.040218398 -s 0 -d -1 -p WCETT -e 284 -c 2 -a 0 -i 0 -k RTR
r -t 0.040218398 -s 6 -d -1 -p WCETT -e 284 -c 2 -a 0 -i 0 -k RTR
r -t 0.040218398 -s 27 -d -1 -p WCETT -e 284 -c 2 -a 0 -i 0 -k RTR
r -t 0.040218536 -s 25 -d -1 -p WCETT -e 284 -c 2 -a 0 -i 0 -k RTR
r -t 0.040218731 -s 9 -d -1 -p WCETT -e 284 -c 2 -a 0 -i 0 -k RTR
r -t 0.040218731 -s 4 -d -1 -p WCETT -e 284 -c 2 -a 0 -i 0 -k RTR
r -t 0.040218810 -s 1 -d -1 -p WCETT -e 284 -c 2 -a 0 -i 0 -k RTR
r -t 0.043196731 -s 3 -d -1 -p WCETT -e 284 -c 2 -a 0 -i 0 -k RTR
r -t 0.043196869 -s 27 -d -1 -p WCETT -e 284 -c 2 -a 0 -i 0 -k RTR
r -t 0.043197064 -s 6 -d -1 -p WCETT -e 284 -c 2 -a 0 -i 0 -k RTR
r -t 0.043197064 -s 1 -d -1 -p WCETT -e 284 -c 2 -a 0 -i 0 -k RTR
r -t 0.043786064 -s 11 -d -1 -p WCETT -e 284 -c 2 -a 0 -i 0 -k RTR
r -t 0.043786064 -s 20 -d -1 -p WCETT -e 284 -c 2 -a 0 -i 0 -k RTR
r -t 0.043786064 -s 17 -d -1 -p WCETT -e 284 -c 2 -a 0 -i 0 -k RTR
r -t 0.043786203 -s 22 -d -1 -p WCETT -e 284 -c 2 -a 0 -i 0 -k RTR
r -t 0.043786203 -s 18 -d -1 -p WCETT -e 284 -c 2 -a 0 -i 0 -k RTR
r -t 0.043786398 -s 13 -d -1 -p WCETT -e 284 -c 2 -a 0 -i 0 -k RTR
r -t 0.043786477 -s 16 -d -1 -p WCETT -e 284 -c 2 -a 0 -i 0 -k RTR
r -t 0.046584398 -s 8 -d -1 -p WCETT -e 284 -c 2 -a 0 -i 0 -k RTR
r -t 0.046584398 -s 22 -d -1 -p WCETT -e 284 -c 2 -a 0 -i 0 -k RTR
r -t 0.046584398 -s 14 -d -1 -p WCETT -e 284 -c 2 -a 0 -i 0 -k RTR
r -t 0.046584536 -s 24 -d -1 -p WCETT -e 284 -c 2 -a 0 -i 0 -k RTR
r -t 0.046584536 -s 20 -d -1 -p WCETT -e 284 -c 2 -a 0 -i 0 -k RTR
r -t 0.046584731 -s 5 -d -1 -p WCETT -e 284 -c 2 -a 0 -i 0 -k RTR
r -t 0.046584731 -s 10 -d -1 -p WCETT -e 284 -c 2 -a 0 -i 0 -k RTR
r -t 0.046584731 -s 17 -d -1 -p WCETT -e 284 -c 2 -a 0 -i 0 -k RTR
r -t 0.046584810 -s 26 -d -1 -p WCETT -e 284 -c 2 -a 0 -i 0 -k RTR
r -t 0.046584810 -s 18 -d -1 -p WCETT -e 284 -c 2 -a 0 -i 0 -k RTR
r -t 0.046584810 -s 13 -d -1 -p WCETT -e 284 -c 2 -a 0 -i 0 -k RTR
r -t 0.046584810 -s 7 -d -1 -p WCETT -e 284 -c 2 -a 0 -i 0 -k RTR
r -t 0.049362869 -s 18 -d -1 -p WCETT -e 284 -c 2 -a 0 -i 0 -k RTR
r -t 0.049362869 -s 13 -d -1 -p WCETT -e 284 -c 2 -a 0 -i 0 -k RTR
r -t 0.049362869 -s 22 -d -1 -p WCETT -e 284 -c 2 -a 0 -i 0 -k RTR
r -t 0.049362869 -s 14 -d -1 -p WCETT -e 284 -c 2 -a 0 -i 0 -k RTR
r -t 0.049363007 -s 16 -d -1 -p WCETT -e 284 -c 2 -a 0 -i 0 -k RTR
r -t 0.049363007 -s 10 -d -1 -p WCETT -e 284 -c 2 -a 0 -i 0 -k RTR
r -t 0.049363007 -s 11 -d -1 -p WCETT -e 284 -c 2 -a 0 -i 0 -k RTR
r -t 0.049363007 -s 17 -d -1 -p WCETT -e 284 -c 2 -a 0 -i 0 -k RTR
r -t 0.049363203 -s 21 -d -1 -p WCETT -e 284 -c 2 -a 0 -i 0 -k RTR
r -t 0.049363203 -s 24 -d -1 -p WCETT -e 284 -c 2 -a 0 -i 0 -k RTR
r -t 0.049363281 -s 7 -d -1 -p WCETT -e 284 -c 2 -a 0 -i 0 -k RTR
r -t 0.049363281 -s 23 -d -1 -p WCETT -e 284 -c 2 -a 0 -i 0 -k RTR
r -t 0.049363281 -s 19 -d -1 -p WCETT -e 284 -c 2 -a 0 -i 0 -k RTR
r -t 0.049363281 -s 8 -d -1 -p WCETT -e 284 -c 2 -a 0 -i 0 -k RTR
r -t 0.052141536 -s 19 -d -1 -p WCETT -e 284 -c 2 -a 0 -i 0 -k RTR
r -t 0.052141536 -s 12 -d -1 -p WCETT -e 284 -c 2 -a 0 -i 0 -k RTR
r -t 0.052141536 -s 23 -d -1 -p WCETT -e 284 -c 2 -a 0 -i 0 -k RTR
r -t 0.052141536 -s 13 -d -1 -p WCETT -e 284 -c 2 -a 0 -i 0 -k RTR
r -t 0.052141674 -s 15 -d -1 -p WCETT -e 284 -c 2 -a 0 -i 0 -k RTR
r -t 0.052141674 -s 9 -d -1 -p WCETT -e 284 -c 2 -a 0 -i 0 -k RTR
r -t 0.052141674 -s 10 -d -1 -p WCETT -e 284 -c 2 -a 0 -i 0 -k RTR
r -t 0.052141674 -s 16 -d -1 -p WCETT -e 284 -c 2 -a 0 -i 0 -k RTR
r -t 0.052141869 -s 25 -d -1 -p WCETT -e 284 -c 2 -a 0 -i 0 -k RTR
r -t 0.052141869 -s 20 -d -1 -p WCETT -e 284 -c 2 -a 0 -i 0 -k RTR
r -t 0.052141948 -s 6 -d -1 -p WCETT -e 284 -c 2 -a 0 -i 0 -k RTR
r -t 0.052141948 -s 7 -d -1 -p WCETT -e 284 -c 2 -a 0 -i 0 -k RTR
r -t 0.052141948 -s 18 -d -1 -p WCETT -e 284 -c 2 -a 0 -i 0 -k RTR
r -t 0.052141948 -s 22 -d -1 -p WCETT -e 284 -c 2 -a 0 -i 0 -k RTR
r -t 0.054900007 -s 13 -d -1 -p WCETT -e 284 -c 2 -a 0 -i 0 -k RTR
r -t 0.054900007 -s 19 -d -1 -p WCETT -e 284 -c 2 -a 0 -i 0 -k RTR
r -t 0.054900007 -s 18 -d -1 -p WCETT -e 284 -c 2 -a 0 -i 0 -k RTR
r -t 0.054900145 -s 20 -d -1 -p WCETT -e 284 -c 2 -a 0 -i 0 -k RTR
r -t 0.054900203 -s 23 -d -1 -p WCETT -e 284 -c 2 -a 0 -i 0 -k RTR
r -t 0.054900203 -s 6 -d -1 -p WCETT -e 284 -c 2 -a 0 -i 0 -k RTR
r -t 0.054900203 -s 27 -d -1 -p WCETT -e 284 -c 2 -a 0 -i 0 -k RTR
r -t 0.054900203 -s 7 -d -1 -p WCETT -e 284 -c 2 -a 0 -i 0 -k RTR
r -t 0.054900341 -s 17 -d -1 -p WCETT -e 284 -c 2 -a 0 -i 0 -k RTR
r -t 0.054900341 -s 9 -d -1 -p WCETT -e 284 -c 2 -a 0 -i 0 -k RTR
r -t 0.054900341 -s 3 -d -1 -p WCETT -e 284 -c 2 -a 0 -i 0 -k RTR
r -t 0.054900341 -s 4 -d -1 -p WCETT -e 284 -c 2 -a 0 -i 0 -k RTR
r -t 0.054900615 -s 0 -d -1 -p WCETT -e 284 -c 2 -a 0 -i 0 -k RTR
r -t 0.054900615 -s 1 -d -1 -p WCETT -e 284 -c 2 -a 0 -i 0 -k RTR
r -t 0.054900615 -s 26 -d -1 -p WCETT -e 284 -c 2 -a 0 -i 0 -k RTR
r -t 0.058143382 -s 25 -d -1 -p WCETT -e 284 -c 2 -a 0 -i 0 -k RTR
r -t 0.058143382 -s 3 -d -1 -p WCETT -e 284 -c 2 -a 0 -i 0 -k RTR
r -t 0.058143382 -s 4 -d -1 -p WCETT -e 284 -c 2 -a 0 -i 0 -k RTR
r -t 0.058143520 -s 6 -d -1 -p WCETT -e 284 -c 2 -a 0 -i 0 -k RTR
r -t 0.058143520 -s 0 -d -1 -p WCETT -e 284 -c 2 -a 0 -i 0 -k RTR
r -t 0.058143520 -s 1 -d -1 -p WCETT -e 284 -c 2 -a 0 -i 0 -k RTR
r -t 0.058143520 -s 7 -d -1 -p WCETT -e 284 -c 2 -a 0 -i 0 -k RTR
r -t 0.058143715 -s 23 -d -1 -p WCETT -e 284 -c 2 -a 0 -i 0 -k RTR
r -t 0.058143715 -s 26 -d -1 -p WCETT -e 284 -c 2 -a 0 -i 0 -k RTR
r -t 0.058143794 -s 9 -d -1 -p WCETT -e 284 -c 2 -a 0 -i 0 -k RTR
r -t 0.058143794 -s 10 -d -1 -p WCETT -e 284 -c 2 -a 0 -i 0 -k RTR
r -t 0.058143794 -s 24 -d -1 -p WCETT -e 284 -c 2 -a 0 -i 0 -k RTR
r -t 0.058143794 -s 28 -d -1 -p WCETT -e 284 -c 2 -a 0 -i 0 -k RTR
r -t 0.060942127 -s 6 -d -1 -p WCETT -e 284 -c 2 -a 0 -i 0 -k RTR
r -t 0.060942127 -s 12 -d -1 -p WCETT -e 284 -c 2 -a 0 -i 0 -k RTR
r -t 0.060942127 -s 23 -d -1 -p WCETT -e 284 -c 2 -a 0 -i 0 -k RTR
r -t 0.060942265 -s 21 -d -1 -p WCETT -e 284 -c 2 -a 0 -i 0 -k RTR
r -t 0.060942265 -s 25 -d -1 -p WCETT -e 284 -c 2 -a 0 -i 0 -k RTR
r -t 0.060942460 -s 3 -d -1 -p WCETT -e 284 -c 2 -a 0 -i 0 -k RTR
r -t 0.060942460 -s 15 -d -1 -p WCETT -e 284 -c 2 -a 0 -i 0 -k RTR
r -t 0.060942460 -s 10 -d -1 -p WCETT -e 284 -c 2 -a 0 -i 0 -k RTR
r -t 0.060942539 -s 19 -d -1 -p WCETT -e 284 -c 2 -a 0 -i 0 -k RTR
r -t 0.060942539 -s 27 -d -1 -p WCETT -e 284 -c 2 -a 0 -i 0 -k RTR
r -t 0.060942539 -s 7 -d -1 -p WCETT -e 284 -c 2 -a 0 -i 0 -k RTR
r -t 0.060942539 -s 13 -d -1 -p WCETT -e 284 -c 2 -a 0 -i 0 -k RTR
r -t 0.063700872 -s 10 -d -1 -p WCETT -e 284 -c 2 -a 0 -i 0 -k RTR
r -t 0.063700872 -s 21 -d -1 -p WCETT -e 284 -c 2 -a 0 -i 0 -k RTR
r -t 0.063700872 -s 16 -d -1 -p WCETT -e 284 -c 2 -a 0 -i 0 -k RTR
r -t 0.063700872 -s 20 -d -1 -p WCETT -e 284 -c 2 -a 0 -i 0 -k RTR
r -t 0.063701010 -s 23 -d -1 -p WCETT -e 284 -c 2 -a 0 -i 0 -k RTR
r -t 0.063701010 -s 19 -d -1 -p WCETT -e 284 -c 2 -a 0 -i 0 -k RTR
r -t 0.063701010 -s 18 -d -1 -p WCETT -e 284 -c 2 -a 0 -i 0 -k RTR
r -t 0.063701010 -s 22 -d -1 -p WCETT -e 284 -c 2 -a 0 -i 0 -k RTR
r -t 0.063701206 -s 7 -d -1 -p WCETT -e 284 -c 2 -a 0 -i 0 -k RTR
r -t 0.063701206 -s 12 -d -1 -p WCETT -e 284 -c 2 -a 0 -i 0 -k RTR
r -t 0.063701206 -s 14 -d -1 -p WCETT -e 284 -c 2 -a 0 -i 0 -k RTR
r -t 0.063701284 -s 25 -d -1 -p WCETT -e 284 -c 2 -a 0 -i 0 -k RTR
r -t 0.063701284 -s 15 -d -1 -p WCETT -e 284 -c 2 -a 0 -i 0 -k RTR
r -t 0.063701284 -s 9 -d -1 -p WCETT -e 284 -c 2 -a 0 -i 0 -k RTR
r -t 0.063701284 -s 24 -d -1 -p WCETT -e 284 -c 2 -a 0 -i 0 -k RTR
r -t 0.063701284 -s 11 -d -1 -p WCETT -e 284 -c 2 -a 0 -i 0 -k RTR
r -t 0.063701284 -s 17 -d -1 -p WCETT -e 284 -c 2 -a 0 -i 0 -k RTR
r -t 0.066519344 -s 16 -d -1 -p WCETT -e 284 -c 2 -a 0 -i 0 -k RTR
r -t 0.066519344 -s 20 -d -1 -p WCETT -e 284 -c 2 -a 0 -i 0 -k RTR
r -t 0.066519344 -s 17 -d -1 -p WCETT -e 284 -c 2 -a 0 -i 0 -k RTR
r -t 0.066519482 -s 13 -d -1 -p WCETT -e 284 -c 2 -a 0 -i 0 -k RTR
r -t 0.066519482 -s 14 -d -1 -p WCETT -e 284 -c 2 -a 0 -i 0 -k RTR
r -t 0.066519677 -s 19 -d -1 -p WCETT -e 284 -c 2 -a 0 -i 0 -k RTR
r -t 0.066519677 -s 22 -d -1 -p WCETT -e 284 -c 2 -a 0 -i 0 -k RTR
r -t 0.066519756 -s 10 -d -1 -p WCETT -e 284 -c 2 -a 0 -i 0 -k RTR
r -t 0.066519756 -s 21 -d -1 -p WCETT -e 284 -c 2 -a 0 -i 0 -k RTR
r -t 0.066519756 -s 11 -d -1 -p WCETT -e 284 -c 2 -a 0 -i 0 -k RTR
+ -t 1.000000000 -s 0 -d -1 -p WCETT -e 284 -c 2 -a 0 -i 0 -k RTR 
- -t 1.000000000 -s 0 -d -1 -p WCETT -e 284 -c 2 -a 0 -i 0 -k RTR
h -t 1.000000000 -s 0 -d -1 -p WCETT -e 284 -c 2 -a 0 -i 0 -k RTR
+ -t 1.000000000 -s 1 -d -1 -p WCETT -e 284 -c 2 -a 0 -i 0 -k RTR 
- -t 1.000000000 -s 1 -d -1 -p WCETT -e 284 -c 2 -a 0 -i 0 -k RTR
h -t 1.000000000 -s 1 -d -1 -p WCETT -e 284 -c 2 -a 0 -i 0 -k RTR
+ -t 1.000000000 -s 2 -d -1 -p WCETT -e 284 -c 2 -a 0 -i 0 -k RTR 
- -t 1.000000000 -s 2 -d -1 -p WCETT -e 284 -c 2 -a 0 -i 0 -k RTR
h -t 1.000000000 -s 2 -d -1 -p WCETT -e 284 -c 2 -a 0 -i 0 -k RTR
+ -t 1.000000000 -s 3 -d -1 -p WCETT -e 284 -c 2 -a 0 -i 0 -k RTR 
- -t 1.000000000 -s 3 -d -1 -p WCETT -e 284 -c 2 -a 0 -i 0 -k RTR
h -t 1.000000000 -s 3 -d -1 -p WCETT -e 284 -c 2 -a 0 -i 0 -k RTR
+ -t 1.000000000 -s 4 -d -1 -p WCETT -e 284 -c 2 -a 0 -i 0 -k RTR 
- -t 1.000000000 -s 4 -d -1 -p WCETT -e 284 -c 2 -a 0 -i 0 -k RTR
h -t 1.000000000 -s 4 -d -1 -p WCETT -e 284 -c 2 -a 0 -i 0 -k RTR
+ -t 1.000000000 -s 5 -d -1 -p WCETT -e 284 -c 2 -a 0 -i 0 -k RTR 
- -t 1.000000000 -s 5 -d -1 -p WCETT -e 284 -c 2 -a 0 -i 0 -k RTR
h -t 1.000000000 -s 5 -d -1 -p WCETT -e 284 -c 2 -a 0 -i 0 -k RTR
+ -t 1.000000000 -s 6 -d -1 -p WCETT -e 284 -c 2 -a 0 -i 0 -k RTR 
- -t 1.000000000 -s 6 -d -1 -p WCETT -e 284 -c 2 -a 0 -i 0 -k RTR
h -t 1.000000000 -s 6 -d -1 -p WCETT -e 284 -c 2 -a 0 -i 0 -k RTR
+ -t 1.000000000 -s 7 -d -1 -p WCETT -e 284 -c 2 -a 0 -i 0 -k RTR 
- -t 1.000000000 -s 7 -d -1 -p WCETT -e 284 -c 2 -a 0 -i 0 -k RTR
h -t 1.000000000 -s 7 -d -1 -p WCETT -e 284 -c 2 -a 0 -i 0 -k RTR
+ -t 1.000000000 -s 8 -d -1 -p WCETT -e 284 -c 2 -a 0 -i 0 -k RTR 
- -t 1.000000000 -s 8 -d -1 -p WCETT -e 284 -c 2 -a 0 -i 0 -k RTR
h -t 1.000000000 -s 8 -d -1 -p WCETT -e 284 -c 2 -a 0 -i 0 -k RTR
+ -t 1.000000000 -s 9 -d -1 -p WCETT -e 284 -c 2 -a 0 -i 0 -k RTR 
- -t 1.000000000 -s 9 -d -1 -p WCETT -e 284 -c 2 -a 0 -i 0 -k RTR
h -t 1.000000000 -s 9 -d -1 -p WCETT -e 284 -c 2 -a 0 -i 0 -k RTR
+ -t 1.000000000 -s 10 -d -1 -p WCETT -e 284 -c 2 -a 0 -i 0 -k RTR 
- -t 1.000000000 -s 10 -d -1 -p WCETT -e 284 -c 2 -a 0 -i 0 -k RTR
h -t 1.000000000 -s 10 -d -1 -p WCETT -e 284 -c 2 -a 0 -i 0 -k RTR
+ -t 1.000000000 -s 11 -d -1 -p WCETT -e 284 -c 2 -a 0 -i 0 -k RTR 
- -t 1.000000000 -s 11 -d -1 -p WCETT -e 284 -c 2 -a 0 -i 0 -k RTR
h -t 1.000000000 -s 11 -d -1 -p WCETT -e 284 -c 2 -a 0 -i 0 -k RTR
+ -t 1.000000000 -s 12 -d -1 -p WCETT -e 284 -c 2 -a 0 -i 0 -k RTR 
- -t 1.000000000 -s 12 -d -1 -p WCETT -e 284 -c 2 -a 0 -i 0 -k RTR
h -t 1.000000000 -s 12 -d -1 -p WCETT -e 284 -c 2 -a 0 -i 0 -k RTR
+ -t 1.000000000 -s 13 -d -1 -p WCETT -e 284 -c 2 -a 0 -i 0 -k RTR 