Sconfig 0.00000 tap: on snoop: rts? on errs? on
Sconfig 0.00000 salvage: on !bd replies? on
Sconfig 0.00000 grat error: on grat reply: on
Sconfig 0.00000 $reply for props: on ring 0 search: on
Sconfig 0.00000 using MOBICACHE
s 15.000000000 _0_ AGT  --- 0 cbr 512 [0 0 0 0] ------- [0:0 18:0 32 0] [0] 0 0
r 15.000000000 _0_ RTR  --- 0 cbr 512 [0 0 0 0] ------- [0:0 18:0 32 0] [0] 0 0
s 15.000000000 _3_ AGT  --- 2 cbr 512 [0 0 0 0] ------- [3:0 18:1 32 0] [0] 0 0
r 15.000000000 _3_ RTR  --- 2 cbr 512 [0 0 0 0] ------- [3:0 18:1 32 0] [0] 0 0
s 15.000000000 _7_ AGT  --- 4 cbr 512 [0 0 0 0] ------- [7:0 11:0 32 0] [0] 0 0
r 15.000000000 _7_ RTR  --- 4 cbr 512 [0 0 0 0] ------- [7:0 11:0 32 0] [0] 0 0
s 15.002120514 _3_ RTR  --- 3 DSR 32 [0 0 0 0] ------- [3:255 18:255 32 0] 1 [1 1] [0 1 0 0->0] [0 0 0 0->0]
r 15.003172848 _2_ RTR  --- 3 DSR 32 [0 ffffffff 3 800] ------- [3:255 18:255 32 0] 1 [1 1] [0 1 0 0->0] [0 0 0 0->0]
r 15.003172848 _8_ RTR  --- 3 DSR 32 [0 ffffffff 3 800] ------- [3:255 18:255 32 0] 1 [1 1] [0 1 0 0->0] [0 0 0 0->0]
r 15.003172848 _4_ RTR  --- 3 DSR 32 [0 ffffffff 3 800] ------- [3:255 18:255 32 0] 1 [1 1] [0 1 0 0->0] [0 0 0 0->0]
r 15.003172986 _7_ RTR  --- 3 DSR 32 [0 ffffffff 3 800] ------- [3:255 18:255 32 0] 1 [1 1] [0 1 0 0->0] [0 0 0 0->0]
r 15.003172986 _9_ RTR  --- 3 DSR 32 [0 ffffffff 3 800] ------- [3:255 18:255 32 0] 1 [1 1] [0 1 0 0->0] [0 0 0 0->0]
r 15.003173181 _1_ RTR  --- 3 DSR 32 [0 ffffffff 3 800] ------- [3:255 18:255 32 0] 1 [1 1] [0 1 0 0->0] [0 0 0 0->0]
r 15.003173181 _13_ RTR  --- 3 DSR 32 [0 ffffffff 3 800] ------- [3:255 18:255 32 0] 1 [1 1] [0 1 0 0->0] [0 0 0 0->0]
r 15.003173260 _12_ RTR  --- 3 DSR 32 [0 ffffffff 3 800] ------- [3:255 18:255 32 0] 1 [1 1] [0 1 0 0->0] [0 0 0 0->0]
r 15.003173260 _6_ RTR  --- 3 DSR 32 [0 ffffffff 3 800] ------- [3:255 18:255 32 0] 1 [1 1] [0 1 0 0->0] [0 0 0 0->0]
r 15.003173260 _14_ RTR  --- 3 DSR 32 [0 ffffffff 3 800] ------- [3:255 18:255 32 0] 1 [1 1] [0 1 0 0->0] [0 0 0 0->0]
s 15.004507296 _7_ RTR  --- 5 DSR 32 [0 0 0 0] ------- [7:255 11:255 32 0] 1 [1 1] [0 1 0 0->0] [0 0 0 0->0]
r 15.005699629 _2_ RTR  --- 5 DSR 32 [0 ffffffff 7 800] ------- [7:255 11:255 32 0] 1 [1 1] [0 1 0 0->0] [0 0 0 0->0]
r 15.005699629 _6_ RTR  --- 5 DSR 32 [0 ffffffff 7 800] ------- [7:255 11:255 32 0] 1 [1 1] [0 1 0 0->0] [0 0 0 0->0]
r 15.005699629 _12_ RTR  --- 5 DSR 32 [0 ffffffff 7 800] ------- [7:255 11:255 32 0] 1 [1 1] [0 1 0 0->0] [0 0 0 0->0]
r 15.005699629 _8_ RTR  --- 5 DSR 32 [0 ffffffff 7 800] ------- [7:255 11:255 32 0] 1 [1 1] [0 1 0 0->0] [0 0 0 0->0]
r 15.005699767 _11_ RTR  --- 5 DSR 32 [0 ffffffff 7 800] ------- [7:255 11:255 32 0] 1 [1 1] [0 1 0 0->0] [0 0 0 0->0]
r 15.005699767 _1_ RTR  --- 5 DSR 32 [0 ffffffff 7 800] ------- [7:255 11:255 32 0] 1 [1 1] [0 1 0 0->0] [0 0 0 0->0]
r 15.005699767 _3_ RTR  --- 5 DSR 32 [0 ffffffff 7 800] ------- [7:255 11:255 32 0] 1 [1 1] [0 1 0 0->0] [0 0 0 0->0]
r 15.005699767 _13_ RTR  --- 5 DSR 32 [0 ffffffff 7 800] ------- [7:255 11:255 32 0] 1 [1 1] [0 1 0 0->0] [0 0 0 0->0]
r 15.005699962 _5_ RTR  --- 5 DSR 32 [0 ffffffff 7 800] ------- [7:255 11:255 32 0] 1 [1 1] [0 1 0 0->0] [0 0 0 0->0]
r 15.005699962 _17_ RTR  --- 5 DSR 32 [0 ffffffff 7 800] ------- [7:255 11:255 32 0] 1 [1 1] [0 1 0 0->0] [0 0 0 0->0]
r 15.005699962 _9_ RTR  --- 5 DSR 32 [0 ffffffff 7 800] ------- [7:255 11:255 32 0] 1 [1 1] [0 1 0 0->0] [0 0 0 0->0]
r 15.005700041 _16_ RTR  --- 5 DSR 32 [0 ffffffff 7 800] ------- [7:255 11:255 32 0] 1 [1 1] [0 1 0 0->0] [0 0 0 0->0]
r 15.005700041 _10_ RTR  --- 5 DSR 32 [0 ffffffff 7 800] ------- [7:255 11:255 32 0] 1 [1 1] [0 1 0 0->0] [0 0 0 0->0]
r 15.005700041 _0_ RTR  --- 5 DSR 32 [0 ffffffff 7 800] ------- [7:255 11:255 32 0] 1 [1 1] [0 1 0 0->0] [0 0 0 0->0]
r 15.005700041 _18_ RTR  --- 5 DSR 32 [0 ffffffff 7 800] ------- [7:255 11:255 32 0] 1 [1 1] [0 1 0 0->0] [0 0 0 0->0]
r 15.005700041 _4_ RTR  --- 5 DSR 32 [0 ffffffff 7 800] ------- [7:255 11:255 32 0] 1 [1 1] [0 1 0 0->0] [0 0 0 0->0]
r 15.005700041 _14_ RTR  --- 5 DSR 32 [0 ffffffff 7 800] ------- [7:255 11:255 32 0] 1 [1 1] [0 1 0 0->0] [0 0 0 0->0]
s 15.009488615 _0_ RTR  --- 1 DSR 32 [0 0 0 0] ------- [0:255 18:255 32 0] 1 [1 1] [0 1 0 0->0] [0 0 0 0->0]
r 15.010320949 _5_ RTR  --- 1 DSR 32 [0 ffffffff 0 800] ------- [0:255 18:255 32 0] 1 [1 1] [0 1 0 0->0] [0 0 0 0->0]
r 15.010320949 _1_ RTR  --- 1 DSR 32 [0 ffffffff 0 800] ------- [0:255 18:255 32 0] 1 [1 1] [0 1 0 0->0] [0 0 0 0->0]
r 15.010321087 _6_ RTR  --- 1 DSR 32 [0 ffffffff 0 800] ------- [0:255 18:255 32 0] 1 [1 1] [0 1 0 0->0] [0 0 0 0->0]
r 15.010321282 _10_ RTR  --- 1 DSR 32 [0 ffffffff 0 800] ------- [0:255 18:255 32 0] 1 [1 1] [0 1 0 0->0] [0 0 0 0->0]
r 15.010321282 _2_ RTR  --- 1 DSR 32 [0 ffffffff 0 800] ------- [0:255 18:255 32 0] 1 [1 1] [0 1 0 0->0] [0 0 0 0->0]
r 15.010321361 _11_ RTR  --- 1 DSR 32 [0 ffffffff 0 800] ------- [0:255 18:255 32 0] 1 [1 1] [0 1 0 0->0] [0 0 0 0->0]
r 15.010321361 _7_ RTR  --- 1 DSR 32 [0 ffffffff 0 800] ------- [0:255 18:255 32 0] 1 [1 1] [0 1 0 0->0] [0 0 0 0->0]
s 15.012009668 _11_ RTR  --- 6 DSR 44 [0 0 0 0] ------- [11:255 7:255 254 7] 2 [0 1] [1 1 2 7->11] [0 0 0 0->0]
r 15.013995082 _7_ RTR  --- 6 DSR 44 [13a 7 b 800] ------- [11:255 7:255 254 7] 2 [0 1] [1 1 2 7->11] [0 0 0 0->0]
SFESTs 15.013995082 _7_ 4 [7 -> 11] 1(1) to 11 [7 |11 ]
s 15.013995082 _7_ RTR  --- 4 cbr 548 [0 0 0 0] ------- [7:0 11:0 32 11] [0] 0 0
r 15.020056497 _11_ RTR  --- 4 cbr 548 [13a b 7 800] ------- [7:0 11:0 32 11] [0] 1 0
r 15.020056497 _11_ AGT  --- 4 cbr 512 [13a b 7 800] ------- [7:0 11:0 32 11] [0] 1 0
s 15.039992650 _3_ RTR  --- 9 DSR 32 [0 0 0 0] ------- [3:255 18:255 32 0] 1 [1 2] [0 2 0 0->16] [0 0 0 0->0]
r 15.041344983 _2_ RTR  --- 9 DSR 32 [0 ffffffff 3 800] ------- [3:255 18:255 32 0] 1 [1 2] [0 2 0 0->16] [0 0 0 0->0]
r 15.041344983 _8_ RTR  --- 9 DSR 32 [0 ffffffff 3 800] ------- [3:255 18:255 32 0] 1 [1 2] [0 2 0 0->16] [0 0 0 0->0]
r 15.041344983 _4_ RTR  --- 9 DSR 32 [0 ffffffff 3 800] ------- [3:255 18:255 32 0] 1 [1 2] [0 2 0 0->16] [0 0 0 0->0]
r 15.041345121 _7_ RTR  --- 9 DSR 32 [0 ffffffff 3 800] ------- [3:255 18:255 32 0] 1 [1 2] [0 2 0 0->16] [0 0 0 0->0]
r 15.041345121 _9_ RTR  --- 9 DSR 32 [0 ffffffff 3 800] ------- [3:255 18:255 32 0] 1 [1 2] [0 2 0 0->16] [0 0 0 0->0]
r 15.041345317 _1_ RTR  --- 9 DSR 32 [0 ffffffff 3 800] ------- [3:255 18:255 32 0] 1 [1 2] [0 2 0 0->16] [0 0 0 0->0]
r 15.041345317 _13_ RTR  --- 9 DSR 32 [0 ffffffff 3 800] ------- [3:255 18:255 32 0] 1 [1 2] [0 2 0 0->16] [0 0 0 0->0]
r 15.041345395 _12_ RTR  --- 9 DSR 32 [0 ffffffff 3 800] ------- [3:255 18:255 32 0] 1 [1 2] [0 2 0 0->16] [0 0 0 0->0]
r 15.041345395 _6_ RTR  --- 9 DSR 32 [0 ffffffff 3 800] ------- [3:255 18:255 32 0] 1 [1 2] [0 2 0 0->16] [0 0 0 0->0]
r 15.041345395 _14_ RTR  --- 9 DSR 32 [0 ffffffff 3 800] ------- [3:255 18:255 32 0] 1 [1 2] [0 2 0 0->16] [0 0 0 0->0]
f 15.041488348 _7_ RTR  --- 9 DSR 48 [0 ffffffff 3 800] ------- [3:255 18:255 32 0] 2 [1 2] [0 2 0 0->16] [0 0 0 0->0]
f 15.042171355 _14_ RTR  --- 9 DSR 48 [0 ffffffff 3 800] ------- [3:255 18:255 32 0] 2 [1 2] [0 2 0 0->16] [0 0 0 0->0]
f 15.042407936 _13_ RTR  --- 9 DSR 48 [0 ffffffff 3 800] ------- [3:255 18:255 32 0] 2 [1 2] [0 2 0 0->16] [0 0 0 0->0]
r 15.042928681 _2_ RTR  --- 9 DSR 48 [0 ffffffff 7 800] ------- [3:255 18:255 32 0] 2 [1 2] [0 2 0 0->16] [0 0 0 0->0]
r 15.042928681 _6_ RTR  --- 9 DSR 48 [0 ffffffff 7 800] ------- [3:255 18:255 32 0] 2 [1 2] [0 2 0 0->16] [0 0 0 0->0]
r 15.042928681 _12_ RTR  --- 9 DSR 48 [0 ffffffff 7 800] ------- [3:255 18:255 32 0] 2 [1 2] [0 2 0 0->16] [0 0 0 0->0]
r 15.042928681 _8_ RTR  --- 9 DSR 48 [0 ffffffff 7 800] ------- [3:255 18:255 32 0] 2 [1 2] [0 2 0 0->16] [0 0 0 0->0]
r 15.042928819 _11_ RTR  --- 9 DSR 48 [0 ffffffff 7 800] ------- [3:255 18:255 32 0] 2 [1 2] [0 2 0 0->16] [0 0 0 0->0]
r 15.042928819 _1_ RTR  --- 9 DSR 48 [0 ffffffff 7 800] ------- [3:255 18:255 32 0] 2 [1 2] [0 2 0 0->16] [0 0 0 0->0]
r 15.042928819 _3_ RTR  --- 9 DSR 48 [0 ffffffff 7 800] ------- [3:255 18:255 32 0] 2 [1 2] [0 2 0 0->16] [0 0 0 0->0]
r 15.042928819 _13_ RTR  --- 9 DSR 48 [0 ffffffff 7 800] ------- [3:255 18:255 32 0] 2 [1 2] [0 2 0 0->16] [0 0 0 0->0]
r 15.042929014 _5_ RTR  --- 9 DSR 48 [0 ffffffff 7 800] ------- [3:255 18:255 32 0] 2 [1 2] [0 2 0 0->16] [0 0 0 0->0]
r 15.042929014 _17_ RTR  --- 9 DSR 48 [0 ffffffff 7 800] ------- [3:255 18:255 32 0] 2 [1 2] [0 2 0 0->16] [0 0 0 0->0]
r 15.042929014 _9_ RTR  --- 9 DSR 48 [0 ffffffff 7 800] ------- [3:255 18:255 32 0] 2 [1 2] [0 2 0 0->16] [0 0 0 0->0]
r 15.042929093 _16_ RTR  --- 9 DSR 48 [0 ffffffff 7 800] ------- [3:255 18:255 32 0] 2 [1 2] [0 2 0 0->16] [0 0 0 0->0]
r 15.042929093 _10_ RTR  --- 9 DSR 48 [0 ffffffff 7 800] ------- [3:255 18:255 32 0] 2 [1 2] [0 2 0 0->16] [0 0 0 0->0]
r 15.042929093 _0_ RTR  --- 9 DSR 48 [0 ffffffff 7 800] ------- [3:255 18:255 32 0] 2 [1 2] [0 2 0 0->16] [0 0 0 0->0]
r 15.042929093 _18_ RTR  --- 9 DSR 48 [0 ffffffff 7 800] ------- [3:255 18:255 32 0] 2 [1 2] [0 2 0 0->16] [0 0 0 0->0]
r 15.042929093 _4_ RTR  --- 9 DSR 48 [0 ffffffff 7 800] ------- [3:255 18:255 32 0] 2 [1 2] [0 2 0 0->16] [0 0 0 0->0]
r 15.042929093 _14_ RTR  --- 9 DSR 48 [0 ffffffff 7 800] ------- [3:255 18:255 32 0] 2 [1 2] [0 2 0 0->16] [0 0 0 0->0]
r 15.043879426 _9_ RTR  --- 9 DSR 48 [0 ffffffff e 800] ------- [3:255 18:255 32 0] 2 [1 2] [0 2 0 0->16] [0 0 0 0->0]
r 15.043879426 _13_ RTR  --- 9 DSR 48 [0 ffffffff e 800] ------- [3:255 18:255 32 0] 2 [1 2] [0 2 0 0->16] [0 0 0 0->0]
r 15.043879426 _19_ RTR  --- 9 DSR 48 [0 ffffffff e 800] ------- [3:255 18:255 32 0] 2 [1 2] [0 2 0 0->16] [0 0 0 0->0]
r 15.043879564 _18_ RTR  --- 9 DSR 48 [0 ffffffff e 800] ------- [3:255 18:255 32 0] 2 [1 2] [0 2 0 0->16] [0 0 0 0->0]
r 15.043879564 _8_ RTR  --- 9 DSR 48 [0 ffffffff e 800] ------- [3:255 18:255 32 0] 2 [1 2] [0 2 0 0->16] [0 0 0 0->0]
r 15.043879760 _4_ RTR  --- 9 DSR 48 [0 ffffffff e 800] ------- [3:255 18:255 32 0] 2 [1 2] [0 2 0 0->16] [0 0 0 0->0]
r 15.043879760 _12_ RTR  --- 9 DSR 48 [0 ffffffff e 800] ------- [3:255 18:255 32 0] 2 [1 2] [0 2 0 0->16] [0 0 0 0->0]
r 15.043879838 _3_ RTR  --- 9 DSR 48 [0 ffffffff e 800] ------- [3:255 18:255 32 0] 2 [1 2] [0 2 0 0->16] [0 0 0 0->0]
r 15.043879838 _17_ RTR  --- 9 DSR 48 [0 ffffffff e 800] ------- [3:255 18:255 32 0] 2 [1 2] [0 2 0 0->16] [0 0 0 0->0]
r 15.043879838 _7_ RTR  --- 9 DSR 48 [0 ffffffff e 800] ------- [3:255 18:255 32 0] 2 [1 2] [0 2 0 0->16] [0 0 0 0->0]
r 15.044769760 _8_ RTR  --- 9 DSR 48 [0 ffffffff d 800] ------- [3:255 18:255 32 0] 2 [1 2] [0 2 0 0->16] [0 0 0 0->0]
r 15.044769760 _12_ RTR  --- 9 DSR 48 [0 ffffffff d 800] ------- [3:255 18:255 32 0] 2 [1 2] [0 2 0 0->16] [0 0 0 0->0]
r 15.044769760 _18_ RTR  --- 9 DSR 48 [0 ffffffff d 800] ------- [3:255 18:255 32 0] 2 [1 2] [0 2 0 0->16] [0 0 0 0->0]
r 15.044769760 _14_ RTR  --- 9 DSR 48 [0 ffffffff d 800] ------- [3:255 18:255 32 0] 2 [1 2] [0 2 0 0->16] [0 0 0 0->0]
r 15.044769898 _17_ RTR  --- 9 DSR 48 [0 ffffffff d 800] ------- [3:255 18:255 32 0] 2 [1 2] [0 2 0 0->16] [0 0 0 0->0]
r 15.044769898 _7_ RTR  --- 9 DSR 48 [0 ffffffff d 800] ------- [3:255 18:255 32 0] 2 [1 2] [0 2 0 0->16] [0 0 0 0->0]
r 15.044769898 _9_ RTR  --- 9 DSR 48 [0 ffffffff d 800] ------- [3:255 18:255 32 0] 2 [1 2] [0 2 0 0->16] [0 0 0 0->0]
r 15.044769898 _19_ RTR  --- 9 DSR 48 [0 ffffffff d 800] ------- [3:255 18:255 32 0] 2 [1 2] [0 2 0 0->16] [0 0 0 0->0]
r 15.044770093 _3_ RTR  --- 9 DSR 48 [0 ffffffff d 800] ------- [3:255 18:255 32 0] 2 [1 2] [0 2 0 0->16] [0 0 0 0->0]
r 15.044770093 _11_ RTR  --- 9 DSR 48 [0 ffffffff d 800] ------- [3:255 18:255 32 0] 2 [1 2] [0 2 0 0->16] [0 0 0 0->0]
r 15.044770172 _2_ RTR  --- 9 DSR 48 [0 ffffffff d 800] ------- [3:255 18:255 32 0] 2 [1 2] [0 2 0 0->16] [0 0 0 0->0]
r 15.044770172 _16_ RTR  --- 9 DSR 48 [0 ffffffff d 800] ------- [3:255 18:255 32 0] 2 [1 2] [0 2 0 0->16] [0 0 0 0->0]
r 15.044770172 _6_ RTR  --- 9 DSR 48 [0 ffffffff d 800] ------- [3:255 18:255 32 0] 2 [1 2] [0 2 0 0->16] [0 0 0 0->0]
r 15.044770172 _4_ RTR  --- 9 DSR 48 [0 ffffffff d 800] ------- [3:255 18:255 32 0] 2 [1 2] [0 2 0 0->16] [0 0 0 0->0]
f 15.045202633 _1_ RTR  --- 9 DSR 48 [0 ffffffff 3 800] ------- [3:255 18:255 32 0] 2 [1 2] [0 2 0 0->16] [0 0 0 0->0]
s 15.045411149 _0_ RTR  --- 8 DSR 32 [0 0 0 0] ------- [0:255 18:255 32 0] 1 [1 2] [0 2 0 0->16] [0 0 0 0->0]
f 15.045593292 _4_ RTR  --- 9 DSR 48 [0 ffffffff 3 800] ------- [3:255 18:255 32 0] 2 [1 2] [0 2 0 0->16] [0 0 0 0->0]
f 15.046123220 _9_ RTR  --- 9 DSR 48 [0 ffffffff 3 800] ------- [3:255 18:255 32 0] 2 [1 2] [0 2 0 0->16] [0 0 0 0->0]
r 15.046262967 _0_ RTR  --- 9 DSR 48 [0 ffffffff 1 800] ------- [3:255 18:255 32 0] 2 [1 2] [0 2 0 0->16] [0 0 0 0->0]
r 15.046262967 _6_ RTR  --- 9 DSR 48 [0 ffffffff 1 800] ------- [3:255 18:255 32 0] 2 [1 2] [0 2 0 0->16] [0 0 0 0->0]
r 15.046262967 _2_ RTR  --- 9 DSR 48 [0 ffffffff 1 800] ------- [3:255 18:255 32 0] 2 [1 2] [0 2 0 0->16] [0 0 0 0->0]
r 15.046263105 _5_ RTR  --- 9 DSR 48 [0 ffffffff 1 800] ------- [3:255 18:255 32 0] 2 [1 2] [0 2 0 0->16] [0 0 0 0->0]
r 15.046263105 _7_ RTR  --- 9 DSR 48 [0 ffffffff 1 800] ------- [3:255 18:255 32 0] 2 [1 2] [0 2 0 0->16] [0 0 0 0->0]
r 15.046263300 _11_ RTR  --- 9 DSR 48 [0 ffffffff 1 800] ------- [3:255 18:255 32 0] 2 [1 2] [0 2 0 0->16] [0 0 0 0->0]
r 15.046263300 _3_ RTR  --- 9 DSR 48 [0 ffffffff 1 800] ------- [3:255 18:255 32 0] 2 [1 2] [0 2 0 0->16] [0 0 0 0->0]
r 15.046263379 _10_ RTR  --- 9 DSR 48 [0 ffffffff 1 800] ------- [3:255 18:255 32 0] 2 [1 2] [0 2 0 0->16] [0 0 0 0->0]
r 15.046263379 _12_ RTR  --- 9 DSR 48 [0 ffffffff 1 800] ------- [3:255 18:255 32 0] 2 [1 2] [0 2 0 0->16] [0 0 0 0->0]
r 15.046263379 _8_ RTR  --- 9 DSR 48 [0 ffffffff 1 800] ------- [3:255 18:255 32 0] 2 [1 2] [0 2 0 0->16] [0 0 0 0->0]
s 15.046757798 _18_ RTR  --- 10 DSR 52 [0 0 0 0] ------- [18:255 3:255 254 7] 3 [0 2] [1 2 3 3->18] [0 0 0 0->0]
r 15.047025300 _5_ RTR  --- 8 DSR 32 [0 ffffffff 0 800] ------- [0:255 18:255 32 0] 1 [1 2] [0 2 0 0->16] [0 0 0 0->0]
r 15.047025300 _1_ RTR  --- 8 DSR 32 [0 ffffffff 0 800] ------- [0:255 18:255 32 0] 1 [1 2] [0 2 0 0->16] [0 0 0 0->0]
r 15.047025438 _6_ RTR  --- 8 DSR 32 [0 ffffffff 0 800] ------- [0:255 18:255 32 0] 1 [1 2] [0 2 0 0->16] [0 0 0 0->0]
r 15.047025633 _10_ RTR  --- 8 DSR 32 [0 ffffffff 0 800] ------- [0:255 18:255 32 0] 1 [1 2] [0 2 0 0->16] [0 0 0 0->0]
r 15.047025633 _2_ RTR  --- 8 DSR 32 [0 ffffffff 0 800] ------- [0:255 18:255 32 0] 1 [1 2] [0 2 0 0->16] [0 0 0 0->0]
r 15.047025712 _11_ RTR  --- 8 DSR 32 [0 ffffffff 0 800] ------- [0:255 18:255 32 0] 1 [1 2] [0 2 0 0->16] [0 0 0 0->0]
r 15.047025712 _7_ RTR  --- 8 DSR 32 [0 ffffffff 0 800] ------- [0:255 18:255 32 0] 1 [1 2] [0 2 0 0->16] [0 0 0 0->0]
f 15.047556123 _5_ RTR  --- 8 DSR 48 [0 ffffffff 0 800] ------- [0:255 18:255 32 0] 2 [1 2] [0 2 0 0->16] [0 0 0 0->0]
f 15.048146696 _0_ RTR  --- 9 DSR 68 [0 ffffffff 7 800] ------- [3:255 18:255 32 0] 3 [1 2] [0 2 0 0->16] [0 0 0 0->0]
r 15.048400674 _4_ RTR  --- 9 DSR 48 [0 ffffffff 9 800] ------- [3:255 18:255 32 0] 2 [1 2] [0 2 0 0->16] [0 0 0 0->0]
r 15.048400674 _8_ RTR  --- 9 DSR 48 [0 ffffffff 9 800] ------- [3:255 18:255 32 0] 2 [1 2] [0 2 0 0->16] [0 0 0 0->0]
r 15.048400674 _14_ RTR  --- 9 DSR 48 [0 ffffffff 9 800] ------- [3:255 18:255 32 0] 2 [1 2] [0 2 0 0->16] [0 0 0 0->0]
r 15.048400813 _13_ RTR  --- 9 DSR 48 [0 ffffffff 9 800] ------- [3:255 18:255 32 0] 2 [1 2] [0 2 0 0->16] [0 0 0 0->0]
r 15.048400813 _3_ RTR  --- 9 DSR 48 [0 ffffffff 9 800] ------- [3:255 18:255 32 0] 2 [1 2] [0 2 0 0->16] [0 0 0 0->0]
r 15.048401008 _7_ RTR  --- 9 DSR 48 [0 ffffffff 9 800] ------- [3:255 18:255 32 0] 2 [1 2] [0 2 0 0->16] [0 0 0 0->0]
r 15.048401008 _19_ RTR  --- 9 DSR 48 [0 ffffffff 9 800] ------- [3:255 18:255 32 0] 2 [1 2] [0 2 0 0->16] [0 0 0 0->0]
r 15.048401086 _18_ RTR  --- 9 DSR 48 [0 ffffffff 9 800] ------- [3:255 18:255 32 0] 2 [1 2] [0 2 0 0->16] [0 0 0 0->0]
r 15.048401086 _12_ RTR  --- 9 DSR 48 [0 ffffffff 9 800] ------- [3:255 18:255 32 0] 2 [1 2] [0 2 0 0->16] [0 0 0 0->0]
r 15.048401086 _2_ RTR  --- 9 DSR 48 [0 ffffffff 9 800] ------- [3:255 18:255 32 0] 2 [1 2] [0 2 0 0->16] [0 0 0 0->0]
f 15.048490117 _10_ RTR  --- 9 DSR 68 [0 ffffffff 7 800] ------- [3:255 18:255 32 0] 3 [1 2] [0 2 0 0->16] [0 0 0 0->0]
f 15.048540978 _6_ RTR  --- 9 DSR 48 [0 ffffffff 3 800] ------- [3:255 18:255 32 0] 2 [1 2] [0 2 0 0->16] [0 0 0 0->0]
f 15.048784891 _2_ RTR  --- 8 DSR 48 [0 ffffffff 0 800] ------- [0:255 18:255 32 0] 2 [1 2] [0 2 0 0->16] [0 0 0 0->0]
f 15.049017581 _5_ RTR  --- 9 DSR 68 [0 ffffffff 7 800] ------- [3:255 18:255 32 0] 3 [1 2] [0 2 0 0->16] [0 0 0 0->0]
f 15.049041404 _11_ RTR  --- 8 DSR 48 [0 ffffffff 0 800] ------- [0:255 18:255 32 0] 2 [1 2] [0 2 0 0->16] [0 0 0 0->0]
r 15.049291008 _3_ RTR  --- 9 DSR 48 [0 ffffffff 4 800] ------- [3:255 18:255 32 0] 2 [1 2] [0 2 0 0->16] [0 0 0 0->0]
r 15.049291008 _9_ RTR  --- 9 DSR 48 [0 ffffffff 4 800] ------- [3:255 18:255 32 0] 2 [1 2] [0 2 0 0->16] [0 0 0 0->0]
r 15.049291146 _8_ RTR  --- 9 DSR 48 [0 ffffffff 4 800] ------- [3:255 18:255 32 0] 2 [1 2] [0 2 0 0->16] [0 0 0 0->0]
r 15.049291341 _2_ RTR  --- 9 DSR 48 [0 ffffffff 4 800] ------- [3:255 18:255 32 0] 2 [1 2] [0 2 0 0->16] [0 0 0 0->0]
r 15.049291341 _14_ RTR  --- 9 DSR 48 [0 ffffffff 4 800] ------- [3:255 18:255 32 0] 2 [1 2] [0 2 0 0->16] [0 0 0 0->0]
r 15.049291420 _13_ RTR  --- 9 DSR 48 [0 ffffffff 4 800] ------- [3:255 18:255 32 0] 2 [1 2] [0 2 0 0->16] [0 0 0 0->0]
r 15.049291420 _7_ RTR  --- 9 DSR 48 [0 ffffffff 4 800] ------- [3:255 18:255 32 0] 2 [1 2] [0 2 0 0->16] [0 0 0 0->0]
f 15.049418403 _19_ RTR  --- 9 DSR 68 [0 ffffffff e 800] ------- [3:255 18:255 32 0] 3 [1 2] [0 2 0 0->16] [0 0 0 0->0]
f 15.049516015 _10_ RTR  --- 8 DSR 48 [0 ffffffff 0 800] ------- [0:255 18:255 32 0] 2 [1 2] [0 2 0 0->16] [0 0 0 0->0]
f 15.049608646 _2_ RTR  --- 9 DSR 48 [0 ffffffff 3 800] ------- [3:255 18:255 32 0] 2 [1 2] [0 2 0 0->16] [0 0 0 0->0]
f 15.049621138 _11_ RTR  --- 9 DSR 68 [0 ffffffff 7 800] ------- [3:255 18:255 32 0] 3 [1 2] [0 2 0 0->16] [0 0 0 0->0]
s 15.049719986 _18_ RTR  --- 12 DSR 52 [0 0 0 0] ------- [18:255 3:255 254 13] 3 [0 2] [1 2 3 3->18] [0 0 0 0->0]
f 15.050190110 _17_ RTR  --- 9 DSR 68 [0 ffffffff 7 800] ------- [3:255 18:255 32 0] 3 [1 2] [0 2 0 0->16] [0 0 0 0->0]
r 15.050766341 _5_ RTR  --- 9 DSR 68 [0 ffffffff 0 800] ------- [3:255 18:255 32 0] 3 [1 2] [0 2 0 0->16] [0 0 0 0->0]
r 15.050766341 _1_ RTR  --- 9 DSR 68 [0 ffffffff 0 800] ------- [3:255 18:255 32 0] 3 [1 2] [0 2 0 0->16] [0 0 0 0->0]
r 15.050766479 _6_ RTR  --- 9 DSR 68 [0 ffffffff 0 800] ------- [3:255 18:255 32 0] 3 [1 2] [0 2 0 0->16] [0 0 0 0->0]
r 15.050766674 _10_ RTR  --- 9 DSR 68 [0 ffffffff 0 800] ------- [3:255 18:255 32 0] 3 [1 2] [0 2 0 0->16] [0 0 0 0->0]
r 15.050766674 _2_ RTR  --- 9 DSR 68 [0 ffffffff 0 800] ------- [3:255 18:255 32 0] 3 [1 2] [0 2 0 0->16] [0 0 0 0->0]
r 15.050766753 _11_ RTR  --- 9 DSR 68 [0 ffffffff 0 800] ------- [3:255 18:255 32 0] 3 [1 2] [0 2 0 0->16] [0 0 0 0->0]
r 15.050766753 _7_ RTR  --- 9 DSR 68 [0 ffffffff 0 800] ------- [3:255 18:255 32 0] 3 [1 2] [0 2 0 0->16] [0 0 0 0->0]
f 15.050944271 _8_ RTR  --- 9 DSR 48 [0 ffffffff 3 800] ------- [3:255 18:255 32 0] 2 [1 2] [0 2 0 0->16] [0 0 0 0->0]
f 15.051313811 _12_ RTR  --- 9 DSR 48 [0 ffffffff 3 800] ------- [3:255 18:255 32 0] 2 [1 2] [0 2 0 0->16] [0 0 0 0->0]
f 15.051524428 _16_ RTR  --- 9 DSR 68 [0 ffffffff 7 800] ------- [3:255 18:255 32 0] 3 [1 2] [0 2 0 0->16] [0 0 0 0->0]
r 15.051736674 _0_ RTR  --- 8 DSR 48 [0 ffffffff 5 800] ------- [0:255 18:255 32 0] 2 [1 2] [0 2 0 0->16] [0 0 0 0->0]
r 15.051736674 _10_ RTR  --- 8 DSR 48 [0 ffffffff 5 800] ------- [0:255 18:255 32 0] 2 [1 2] [0 2 0 0->16] [0 0 0 0->0]
r 15.051736674 _6_ RTR  --- 8 DSR 48 [0 ffffffff 5 800] ------- [0:255 18:255 32 0] 2 [1 2] [0 2 0 0->16] [0 0 0 0->0]
r 15.051736813 _1_ RTR  --- 8 DSR 48 [0 ffffffff 5 800] ------- [0:255 18:255 32 0] 2 [1 2] [0 2 0 0->16] [0 0 0 0->0]
r 15.051736813 _11_ RTR  --- 8 DSR 48 [0 ffffffff 5 800] ------- [0:255 18:255 32 0] 2 [1 2] [0 2 0 0->16] [0 0 0 0->0]
r 15.051737008 _15_ RTR  --- 8 DSR 48 [0 ffffffff 5 800] ------- [0:255 18:255 32 0] 2 [1 2] [0 2 0 0->16] [0 0 0 0->0]
r 15.051737008 _7_ RTR  --- 8 DSR 48 [0 ffffffff 5 800] ------- [0:255 18:255 32 0] 2 [1 2] [0 2 0 0->16] [0 0 0 0->0]
r 15.051737086 _16_ RTR  --- 8 DSR 48 [0 ffffffff 5 800] ------- [0:255 18:255 32 0] 2 [1 2] [0 2 0 0->16] [0 0 0 0->0]
r 15.051737086 _2_ RTR  --- 8 DSR 48 [0 ffffffff 5 800] ------- [0:255 18:255 32 0] 2 [1 2] [0 2 0 0->16] [0 0 0 0->0]
r 15.051737086 _12_ RTR  --- 8 DSR 48 [0 ffffffff 5 800] ------- [0:255 18:255 32 0] 2 [1 2] [0 2 0 0->16] [0 0 0 0->0]
s 15.052067786 _0_ AGT  --- 14 cbr 512 [0 0 0 0] ------- [0:0 18:0 32 0] [1] 0 0
r 15.052067786 _0_ RTR  --- 14 cbr 512 [0 0 0 0] ------- [0:0 18:0 32 0] [1] 0 0
s 15.052429991 _18_ RTR  --- 11 DSR 52 [0 0 0 0] ------- [18:255 3:255 254 14] 3 [0 2] [1 2 3 3->18] [0 0 0 0->0]
r 15.052607420 _1_ RTR  --- 8 DSR 48 [0 ffffffff 2 800] ------- [0:255 18:255 32 0] 2 [1 2] [0 2 0 0->16] [0 0 0 0->0]
r 15.052607420 _7_ RTR  --- 8 DSR 48 [0 ffffffff 2 800] ------- [0:255 18:255 32 0] 2 [1 2] [0 2 0 0->16] [0 0 0 0->0]
r 15.052607420 _3_ RTR  --- 8 DSR 48 [0 ffffffff 2 800] ------- [0:255 18:255 32 0] 2 [1 2] [0 2 0 0->16] [0 0 0 0->0]
r 15.052607558 _6_ RTR  --- 8 DSR 48 [0 ffffffff 2 800] ------- [0:255 18:255 32 0] 2 [1 2] [0 2 0 0->16] [0 0 0 0->0]
r 15.052607558 _8_ RTR  --- 8 DSR 48 [0 ffffffff 2 800] ------- [0:255 18:255 32 0] 2 [1 2] [0 2 0 0->16] [0 0 0 0->0]
r 15.052607753 _0_ RTR  --- 8 DSR 48 [0 ffffffff 2 800] ------- [0:255 18:255 32 0] 2 [1 2] [0 2 0 0->16] [0 0 0 0->0]
r 15.052607753 _12_ RTR  --- 8 DSR 48 [0 ffffffff 2 800] ------- [0:255 18:255 32 0] 2 [1 2] [0 2 0 0->16] [0 0 0 0->0]
r 15.052607753 _4_ RTR  --- 8 DSR 48 [0 ffffffff 2 800] ------- [0:255 18:255 32 0] 2 [1 2] [0 2 0 0->16] [0 0 0 0->0]
r 15.052607832 _11_ RTR  --- 8 DSR 48 [0 ffffffff 2 800] ------- [0:255 18:255 32 0] 2 [1 2] [0 2 0 0->16] [0 0 0 0->0]
r 15.052607832 _5_ RTR  --- 8 DSR 48 [0 ffffffff 2 800] ------- [0:255 18:255 32 0] 2 [1 2] [0 2 0 0->16] [0 0 0 0->0]
r 15.052607832 _13_ RTR  --- 8 DSR 48 [0 ffffffff 2 800] ------- [0:255 18:255 32 0] 2 [1 2] [0 2 0 0->16] [0 0 0 0->0]
r 15.052607832 _9_ RTR  --- 8 DSR 48 [0 ffffffff 2 800] ------- [0:255 18:255 32 0] 2 [1 2] [0 2 0 0->16] [0 0 0 0->0]
f 15.052974012 _3_ RTR  --- 8 DSR 68 [0 ffffffff 2 800] ------- [0:255 18:255 32 0] 3 [1 2] [0 2 0 0->16] [0 0 0 0->0]
f 15.053619068 _7_ RTR  --- 8 DSR 48 [0 ffffffff 0 800] ------- [0:255 18:255 32 0] 2 [1 2] [0 2 0 0->16] [0 0 0 0->0]
r 15.053658165 _0_ RTR  --- 9 DSR 68 [0 ffffffff 5 800] ------- [3:255 18:255 32 0] 3 [1 2] [0 2 0 0->16] [0 0 0 0->0]
r 15.053658165 _10_ RTR  --- 9 DSR 68 [0 ffffffff 5 800] ------- [3:255 18:255 32 0] 3 [1 2] [0 2 0 0->16] [0 0 0 0->0]
r 15.053658165 _6_ RTR  --- 9 DSR 68 [0 ffffffff 5 800] ------- [3:255 18:255 32 0] 3 [1 2] [0 2 0 0->16] [0 0 0 0->0]
r 15.053658303 _1_ RTR  --- 9 DSR 68 [0 ffffffff 5 800] ------- [3:255 18:255 32 0] 3 [1 2] [0 2 0 0->16] [0 0 0 0->0]
r 15.053658303 _11_ RTR  --- 9 DSR 68 [0 ffffffff 5 800] ------- [3:255 18:255 32 0] 3 [1 2] [0 2 0 0->16] [0 0 0 0->0]
r 15.053658499 _15_ RTR  --- 9 DSR 68 [0 ffffffff 5 800] ------- [3:255 18:255 32 0] 3 [1 2] [0 2 0 0->16] [0 0 0 0->0]
r 15.053658499 _7_ RTR  --- 9 DSR 68 [0 ffffffff 5 800] ------- [3:255 18:255 32 0] 3 [1 2] [0 2 0 0->16] [0 0 0 0->0]
r 15.053658577 _16_ RTR  --- 9 DSR 68 [0 ffffffff 5 800] ------- [3:255 18:255 32 0] 3 [1 2] [0 2 0 0->16] [0 0 0 0->0]
r 15.053658577 _2_ RTR  --- 9 DSR 68 [0 ffffffff 5 800] ------- [3:255 18:255 32 0] 3 [1 2] [0 2 0 0->16] [0 0 0 0->0]
r 15.053658577 _12_ RTR  --- 9 DSR 68 [0 ffffffff 5 800] ------- [3:255 18:255 32 0] 3 [1 2] [0 2 0 0->16] [0 0 0 0->0]
f 15.054215313 _12_ RTR  --- 8 DSR 68 [0 ffffffff 5 800] ------- [0:255 18:255 32 0] 3 [1 2] [0 2 0 0->16] [0 0 0 0->0]
f 15.054373925 _15_ RTR  --- 9 DSR 92 [0 ffffffff 5 800] ------- [3:255 18:255 32 0] 4 [1 2] [0 2 0 0->16] [0 0 0 0->0]
r 15.054659401 _2_ RTR  --- 8 DSR 48 [0 ffffffff 7 800] ------- [0:255 18:255 32 0] 2 [1 2] [0 2 0 0->16] [0 0 0 0->0]
r 15.054659401 _6_ RTR  --- 8 DSR 48 [0 ffffffff 7 800] ------- [0:255 18:255 32 0] 2 [1 2] [0 2 0 0->16] [0 0 0 0->0]
r 15.054659401 _12_ RTR  --- 8 DSR 48 [0 ffffffff 7 800] ------- [0:255 18:255 32 0] 2 [1 2] [0 2 0 0->16] [0 0 0 0->0]
r 15.054659401 _8_ RTR  --- 8 DSR 48 [0 ffffffff 7 800] ------- [0:255 18:255 32 0] 2 [1 2] [0 2 0 0->16] [0 0 0 0->0]
r 15.054659539 _11_ RTR  --- 8 DSR 48 [0 ffffffff 7 800] ------- [0:255 18:255 32 0] 2 [1 2] [0 2 0 0->16] [0 0 0 0->0]
r 15.054659539 _1_ RTR  --- 8 DSR 48 [0 ffffffff 7 800] ------- [0:255 18:255 32 0] 2 [1 2] [0 2 0 0->16] [0 0 0 0->0]
r 15.054659539 _3_ RTR  --- 8 DSR 48 [0 ffffffff 7 800] ------- [0:255 18:255 32 0] 2 [1 2] [0 2 0 0->16] [0 0 0 0->0]
r 15.054659539 _13_ RTR  --- 8 DSR 48 [0 ffffffff 7 800] ------- [0:255 18:255 32 0] 2 [1 2] [0 2 0 0->16] [0 0 0 0->0]
r 15.054659734 _5_ RTR  --- 8 DSR 48 [0 ffffffff 7 800] ------- [0:255 18:255 32 0] 2 [1 2] [0 2 0 0->16] [0 0 0 0->0]
r 15.054659734 _17_ RTR  --- 8 DSR 48 [0 ffffffff 7 800] ------- [0:255 18:255 32 0] 2 [1 2] [0 2 0 0->16] [0 0 0 0->0]
r 15.054659734 _9_ RTR  --- 8 DSR 48 [0 ffffffff 7 800] ------- [0:255 18:255 32 0] 2 [1 2] [0 2 0 0->16] [0 0 0 0->0]
r 15.054659813 _16_ RTR  --- 8 DSR 48 [0 ffffffff 7 800] ------- [0:255 18:255 32 0] 2 [1 2] [0 2 0 0->16] [0 0 0 0->0]
r 15.054659813 _10_ RTR  --- 8 DSR 48 [0 ffffffff 7 800] ------- [0:255 18:255 32 0] 2 [1 2] [0 2 0 0->16] [0 0 0 0->0]
r 15.054659813 _0_ RTR  --- 8 DSR 48 [0 ffffffff 7 800] ------- [0:255 18:255 32 0] 2 [1 2] [0 2 0 0->16] [0 0 0 0->0]
r 15.054659813 _18_ RTR  --- 8 DSR 48 [0 ffffffff 7 800] ------- [0:255 18:255 32 0] 2 [1 2] [0 2 0 0->16] [0 0 0 0->0]
r 15.054659813 _4_ RTR  --- 8 DSR 48 [0 ffffffff 7 800] ------- [0:255 18:255 32 0] 2 [1 2] [0 2 0 0->16] [0 0 0 0->0]
r 15.054659813 _14_ RTR  --- 8 DSR 48 [0 ffffffff 7 800] ------- [0:255 18:255 32 0] 2 [1 2] [0 2 0 0->16] [0 0 0 0->0]
f 15.054834558 _1_ RTR  --- 8 DSR 48 [0 ffffffff 0 800] ------- [0:255 18:255 32 0] 2 [1 2] [0 2 0 0->16] [0 0 0 0->0]
s 15.055471838 _18_ RTR  --- 13 DSR 52 [0 0 0 0] ------- [18:255 3:255 254 9] 3 [0 2] [1 2 3 3->18] [0 0 0 0->0]
r 15.055529872 _6_ RTR  --- 8 DSR 48 [0 ffffffff b 800] ------- [0:255 18:255 32 0] 2 [1 2] [0 2 0 0->16] [0 0 0 0->0]
r 15.055529872 _10_ RTR  --- 8 DSR 48 [0 ffffffff b 800] ------- [0:255 18:255 32 0] 2 [1 2] [0 2 0 0->16] [0 0 0 0->0]
r 15.055529872 _16_ RTR  --- 8 DSR 48 [0 ffffffff b 800] ------- [0:255 18:255 32 0] 2 [1 2] [0 2 0 0->16] [0 0 0 0->0]
r 15.055529872 _12_ RTR  --- 8 DSR 48 [0 ffffffff b 800] ------- [0:255 18:255 32 0] 2 [1 2] [0 2 0 0->16] [0 0 0 0->0]
r 15.055530011 _15_ RTR  --- 8 DSR 48 [0 ffffffff b 800] ------- [0:255 18:255 32 0] 2 [1 2] [0 2 0 0->16] [0 0 0 0->0]
r 15.055530011 _5_ RTR  --- 8 DSR 48 [0 ffffffff b 800] ------- [0:255 18:255 32 0] 2 [1 2] [0 2 0 0->16] [0 0 0 0->0]
r 15.055530011 _7_ RTR  --- 8 DSR 48 [0 ffffffff b 800] ------- [0:255 18:255 32 0] 2 [1 2] [0 2 0 0->16] [0 0 0 0->0]
r 15.055530011 _17_ RTR  --- 8 DSR 48 [0 ffffffff b 800] ------- [0:255 18:255 32 0] 2 [1 2] [0 2 0 0->16] [0 0 0 0->0]
r 15.055530206 _1_ RTR  --- 8 DSR 48 [0 ffffffff b 800] ------- [0:255 18:255 32 0] 2 [1 2] [0 2 0 0->16] [0 0 0 0->0]
r 15.055530206 _13_ RTR  --- 8 DSR 48 [0 ffffffff b 800] ------- [0:255 18:255 32 0] 2 [1 2] [0 2 0 0->16] [0 0 0 0->0]
r 15.055530284 _0_ RTR  --- 8 DSR 48 [0 ffffffff b 800] ------- [0:255 18:255 32 0] 2 [1 2] [0 2 0 0->16] [0 0 0 0->0]
r 15.055530284 _2_ RTR  --- 8 DSR 48 [0 ffffffff b 800] ------- [0:255 18:255 32 0] 2 [1 2] [0 2 0 0->16] [0 0 0 0->0]
r 15.055530284 _8_ RTR  --- 8 DSR 48 [0 ffffffff b 800] ------- [0:255 18:255 32 0] 2 [1 2] [0 2 0 0->16] [0 0 0 0->0]
r 15.055530284 _18_ RTR  --- 8 DSR 48 [0 ffffffff b 800] ------- [0:255 18:255 32 0] 2 [1 2] [0 2 0 0->16] [0 0 0 0->0]
f 15.056006108 _17_ RTR  --- 8 DSR 68 [0 ffffffff 7 800] ------- [0:255 18:255 32 0] 3 [1 2] [0 2 0 0->16] [0 0 0 0->0]
f 15.056549518 _9_ RTR  --- 8 DSR 68 [0 ffffffff 2 800] ------- [0:255 18:255 32 0] 3 [1 2] [0 2 0 0->16] [0 0 0 0->0]
r 15.056560206 _5_ RTR  --- 9 DSR 68 [0 ffffffff a 800] ------- [3:255 18:255 32 0] 3 [1 2] [0 2 0 0->16] [0 0 0 0->0]
r 15.056560206 _15_ RTR  --- 9 DSR 68 [0 ffffffff a 800] ------- [3:255 18:255 32 0] 3 [1 2] [0 2 0 0->16] [0 0 0 0->0]
r 15.056560206 _11_ RTR  --- 9 DSR 68 [0 ffffffff a 800] ------- [3:255 18:255 32 0] 3 [1 2] [0 2 0 0->16] [0 0 0 0->0]
r 15.056560344 _6_ RTR  --- 9 DSR 68 [0 ffffffff a 800] ------- [3:255 18:255 32 0] 3 [1 2] [0 2 0 0->16] [0 0 0 0->0]
r 15.056560344 _16_ RTR  --- 9 DSR 68 [0 ffffffff a 800] ------- [3:255 18:255 32 0] 3 [1 2] [0 2 0 0->16] [0 0 0 0->0]
r 15.056560539 _0_ RTR  --- 9 DSR 68 [0 ffffffff a 800] ------- [3:255 18:255 32 0] 3 [1 2] [0 2 0 0->16] [0 0 0 0->0]
r 15.056560539 _12_ RTR  --- 9 DSR 68 [0 ffffffff a 800] ------- [3:255 18:255 32 0] 3 [1 2] [0 2 0 0->16] [0 0 0 0->0]
r 15.056560618 _1_ RTR  --- 9 DSR 68 [0 ffffffff a 800] ------- [3:255 18:255 32 0] 3 [1 2] [0 2 0 0->16] [0 0 0 0->0]
r 15.056560618 _7_ RTR  --- 9 DSR 68 [0 ffffffff a 800] ------- [3:255 18:255 32 0] 3 [1 2] [0 2 0 0->16] [0 0 0 0->0]
r 15.056560618 _17_ RTR  --- 9 DSR 68 [0 ffffffff a 800] ------- [3:255 18:255 32 0] 3 [1 2] [0 2 0 0->16] [0 0 0 0->0]
f 15.056593465 _6_ RTR  --- 8 DSR 48 [0 ffffffff 0 800] ------- [0:255 18:255 32 0] 2 [1 2] [0 2 0 0->16] [0 0 0 0->0]
r 15.057510872 _7_ RTR  --- 9 DSR 48 [0 ffffffff c 800] ------- [3:255 18:255 32 0] 2 [1 2] [0 2 0 0->16] [0 0 0 0->0]
r 15.057510872 _11_ RTR  --- 9 DSR 48 [0 ffffffff c 800] ------- [3:255 18:255 32 0] 2 [1 2] [0 2 0 0->16] [0 0 0 0->0]
r 15.057510872 _17_ RTR  --- 9 DSR 48 [0 ffffffff c 800] ------- [3:255 18:255 32 0] 2 [1 2] [0 2 0 0->16] [0 0 0 0->0]