Sconfig 0.00000 tap: on snoop: rts? on errs? on
Sconfig 0.00000 salvage: on !bd replies? on
Sconfig 0.00000 grat error: on grat reply: on
Sconfig 0.00000 $reply for props: on ring 0 search: on
Sconfig 0.00000 using MOBICACHE
s 15.000000000 _0_ AGT  --- 0 cbr 512 [0 0 0 0] ------- [0:0 18:0 32 0] [0] 0 0
r 15.000000000 _0_ RTR  --- 0 cbr 512 [0 0 0 0] ------- [0:0 18:0 32 0] [0] 0 0
s 15.000000000 _3_ AGT  --- 2 cbr 512 [0 0 0 0] ------- [3:0 18:1 32 0] [0] 0 0
r 15.000000000 _3_ RTR  --- 2 cbr 512 [0 0 0 0] ------- [3:0 18:1 32 0] [0] 0 0
s 15.000000000 _7_ AGT  --- 4 cbr 512 [0 0 0 0] ------- [7:0 11:0 32 0] [0] 0 0
r 15.000000000 _7_ RTR  --- 4 cbr 512 [0 0 0 0] ------- [7:0 11:0 32 0] [0] 0 0
s 15.002120514 _3_ RTR  --- 3 DSR 32 [0 0 0 0] ------- [3:255 18:255 32 0] 1 [1 1] [0 1 0 0->0] [0 0 0 0->0]
r 15.003172848 _0_ RTR  --- 3 DSR 32 [0 ffffffff 3 800] ------- [3:255 18:255 32 0] 1 [1 1] [0 1 0 0->0] [0 0 0 0->0]
r 15.003172848 _6_ RTR  --- 3 DSR 32 [0 ffffffff 3 800] ------- [3:255 18:255 32 0] 1 [1 1] [0 1 0 0->0] [0 0 0 0->0]
r 15.003173181 _9_ RTR  --- 3 DSR 32 [0 ffffffff 3 800] ------- [3:255 18:255 32 0] 1 [1 1] [0 1 0 0->0] [0 0 0 0->0]
r 15.003173181 _4_ RTR  --- 3 DSR 32 [0 ffffffff 3 800] ------- [3:255 18:255 32 0] 1 [1 1] [0 1 0 0->0] [0 0 0 0->0]
r 15.003173260 _1_ RTR  --- 3 DSR 32 [0 ffffffff 3 800] ------- [3:255 18:255 32 0] 1 [1 1] [0 1 0 0->0] [0 0 0 0->0]
r 15.003173260 _7_ RTR  --- 3 DSR 32 [0 ffffffff 3 800] ------- [3:255 18:255 32 0] 1 [1 1] [0 1 0 0->0] [0 0 0 0->0]
s 15.004507296 _7_ RTR  --- 5 DSR 32 [0 0 0 0] ------- [7:255 11:255 32 0] 1 [1 1] [0 1 0 0->0] [0 0 0 0->0]
r 15.005699629 _4_ RTR  --- 5 DSR 32 [0 ffffffff 7 800] ------- [7:255 11:255 32 0] 1 [1 1] [0 1 0 0->0] [0 0 0 0->0]
r 15.005699629 _10_ RTR  --- 5 DSR 32 [0 ffffffff 7 800] ------- [7:255 11:255 32 0] 1 [1 1] [0 1 0 0->0] [0 0 0 0->0]
r 15.005699962 _1_ RTR  --- 5 DSR 32 [0 ffffffff 7 800] ------- [7:255 11:255 32 0] 1 [1 1] [0 1 0 0->0] [0 0 0 0->0]
r 15.005699962 _6_ RTR  --- 5 DSR 32 [0 ffffffff 7 800] ------- [7:255 11:255 32 0] 1 [1 1] [0 1 0 0->0] [0 0 0 0->0]
r 15.005699962 _13_ RTR  --- 5 DSR 32 [0 ffffffff 7 800] ------- [7:255 11:255 32 0] 1 [1 1] [0 1 0 0->0] [0 0 0 0->0]
r 15.005699962 _8_ RTR  --- 5 DSR 32 [0 ffffffff 7 800] ------- [7:255 11:255 32 0] 1 [1 1] [0 1 0 0->0] [0 0 0 0->0]
r 15.005700041 _9_ RTR  --- 5 DSR 32 [0 ffffffff 7 800] ------- [7:255 11:255 32 0] 1 [1 1] [0 1 0 0->0] [0 0 0 0->0]
r 15.005700041 _3_ RTR  --- 5 DSR 32 [0 ffffffff 7 800] ------- [7:255 11:255 32 0] 1 [1 1] [0 1 0 0->0] [0 0 0 0->0]
r 15.005700041 _5_ RTR  --- 5 DSR 32 [0 ffffffff 7 800] ------- [7:255 11:255 32 0] 1 [1 1] [0 1 0 0->0] [0 0 0 0->0]
r 15.005700041 _11_ RTR  --- 5 DSR 32 [0 ffffffff 7 800] ------- [7:255 11:255 32 0] 1 [1 1] [0 1 0 0->0] [0 0 0 0->0]
s 15.009488615 _0_ RTR  --- 1 DSR 32 [0 0 0 0] ------- [0:255 18:255 32 0] 1 [1 1] [0 1 0 0->0] [0 0 0 0->0]
r 15.010320949 _3_ RTR  --- 1 DSR 32 [0 ffffffff 0 800] ------- [0:255 18:255 32 0] 1 [1 1] [0 1 0 0->0] [0 0 0 0->0]
r 15.010321282 _6_ RTR  --- 1 DSR 32 [0 ffffffff 0 800] ------- [0:255 18:255 32 0] 1 [1 1] [0 1 0 0->0] [0 0 0 0->0]
r 15.010321282 _1_ RTR  --- 1 DSR 32 [0 ffffffff 0 800] ------- [0:255 18:255 32 0] 1 [1 1] [0 1 0 0->0] [0 0 0 0->0]
r 15.010321361 _4_ RTR  --- 1 DSR 32 [0 ffffffff 0 800] ------- [0:255 18:255 32 0] 1 [1 1] [0 1 0 0->0] [0 0 0 0->0]
s 15.012009942 _11_ RTR  --- 6 DSR 44 [0 0 0 0] ------- [11:255 7:255 254 7] 2 [0 1] [1 1 2 7->11] [0 0 0 0->0]
r 15.013996178 _7_ RTR  --- 6 DSR 44 [13a 7 b 800] ------- [11:255 7:255 254 7] 2 [0 1] [1 1 2 7->11] [0 0 0 0->0]
SFESTs 15.013996178 _7_ 4 [7 -> 11] 1(1) to 11 [7 |11 ]
s 15.013996178 _7_ RTR  --- 4 cbr 548 [0 0 0 0] ------- [7:0 11:0 32 11] [0] 0 0
r 15.020058414 _11_ RTR  --- 4 cbr 548 [13a b 7 800] ------- [7:0 11:0 32 11] [0] 1 0
r 15.020058414 _11_ AGT  --- 4 cbr 512 [13a b 7 800] ------- [7:0 11:0 32 11] [0] 1 0
s 15.039992650 _3_ RTR  --- 9 DSR 32 [0 0 0 0] ------- [3:255 18:255 32 0] 1 [1 2] [0 2 0 0->16] [0 0 0 0->0]
r 15.041344983 _0_ RTR  --- 9 DSR 32 [0 ffffffff 3 800] ------- [3:255 18:255 32 0] 1 [1 2] [0 2 0 0->16] [0 0 0 0->0]
r 15.041344983 _6_ RTR  --- 9 DSR 32 [0 ffffffff 3 800] ------- [3:255 18:255 32 0] 1 [1 2] [0 2 0 0->16] [0 0 0 0->0]
r 15.041345317 _9_ RTR  --- 9 DSR 32 [0 ffffffff 3 800] ------- [3:255 18:255 32 0] 1 [1 2] [0 2 0 0->16] [0 0 0 0->0]
r 15.041345317 _4_ RTR  --- 9 DSR 32 [0 ffffffff 3 800] ------- [3:255 18:255 32 0] 1 [1 2] [0 2 0 0->16] [0 0 0 0->0]
r 15.041345395 _1_ RTR  --- 9 DSR 32 [0 ffffffff 3 800] ------- [3:255 18:255 32 0] 1 [1 2] [0 2 0 0->16] [0 0 0 0->0]
r 15.041345395 _7_ RTR  --- 9 DSR 32 [0 ffffffff 3 800] ------- [3:255 18:255 32 0] 1 [1 2] [0 2 0 0->16] [0 0 0 0->0]
f 15.041488543 _4_ RTR  --- 9 DSR 48 [0 ffffffff 3 800] ------- [3:255 18:255 32 0] 2 [1 2] [0 2 0 0->16] [0 0 0 0->0]
r 15.042568876 _1_ RTR  --- 9 DSR 48 [0 ffffffff 4 800] ------- [3:255 18:255 32 0] 2 [1 2] [0 2 0 0->16] [0 0 0 0->0]
r 15.042568876 _7_ RTR  --- 9 DSR 48 [0 ffffffff 4 800] ------- [3:255 18:255 32 0] 2 [1 2] [0 2 0 0->16] [0 0 0 0->0]
r 15.042569210 _3_ RTR  --- 9 DSR 48 [0 ffffffff 4 800] ------- [3:255 18:255 32 0] 2 [1 2] [0 2 0 0->16] [0 0 0 0->0]
r 15.042569210 _10_ RTR  --- 9 DSR 48 [0 ffffffff 4 800] ------- [3:255 18:255 32 0] 2 [1 2] [0 2 0 0->16] [0 0 0 0->0]
r 15.042569210 _5_ RTR  --- 9 DSR 48 [0 ffffffff 4 800] ------- [3:255 18:255 32 0] 2 [1 2] [0 2 0 0->16] [0 0 0 0->0]
r 15.042569288 _6_ RTR  --- 9 DSR 48 [0 ffffffff 4 800] ------- [3:255 18:255 32 0] 2 [1 2] [0 2 0 0->16] [0 0 0 0->0]
r 15.042569288 _0_ RTR  --- 9 DSR 48 [0 ffffffff 4 800] ------- [3:255 18:255 32 0] 2 [1 2] [0 2 0 0->16] [0 0 0 0->0]
r 15.042569288 _2_ RTR  --- 9 DSR 48 [0 ffffffff 4 800] ------- [3:255 18:255 32 0] 2 [1 2] [0 2 0 0->16] [0 0 0 0->0]
r 15.042569288 _8_ RTR  --- 9 DSR 48 [0 ffffffff 4 800] ------- [3:255 18:255 32 0] 2 [1 2] [0 2 0 0->16] [0 0 0 0->0]
f 15.044933186 _10_ RTR  --- 9 DSR 68 [0 ffffffff 4 800] ------- [3:255 18:255 32 0] 3 [1 2] [0 2 0 0->16] [0 0 0 0->0]
f 15.045202712 _7_ RTR  --- 9 DSR 48 [0 ffffffff 3 800] ------- [3:255 18:255 32 0] 2 [1 2] [0 2 0 0->16] [0 0 0 0->0]
s 15.045411149 _0_ RTR  --- 8 DSR 32 [0 0 0 0] ------- [0:255 18:255 32 0] 1 [1 2] [0 2 0 0->16] [0 0 0 0->0]
f 15.045593626 _9_ RTR  --- 9 DSR 48 [0 ffffffff 3 800] ------- [3:255 18:255 32 0] 2 [1 2] [0 2 0 0->16] [0 0 0 0->0]
f 15.046123494 _1_ RTR  --- 9 DSR 48 [0 ffffffff 3 800] ------- [3:255 18:255 32 0] 2 [1 2] [0 2 0 0->16] [0 0 0 0->0]
r 15.046133520 _7_ RTR  --- 9 DSR 68 [0 ffffffff a 800] ------- [3:255 18:255 32 0] 3 [1 2] [0 2 0 0->16] [0 0 0 0->0]
r 15.046133520 _13_ RTR  --- 9 DSR 68 [0 ffffffff a 800] ------- [3:255 18:255 32 0] 3 [1 2] [0 2 0 0->16] [0 0 0 0->0]
r 15.046133853 _4_ RTR  --- 9 DSR 68 [0 ffffffff a 800] ------- [3:255 18:255 32 0] 3 [1 2] [0 2 0 0->16] [0 0 0 0->0]
r 15.046133853 _9_ RTR  --- 9 DSR 68 [0 ffffffff a 800] ------- [3:255 18:255 32 0] 3 [1 2] [0 2 0 0->16] [0 0 0 0->0]
r 15.046133853 _16_ RTR  --- 9 DSR 68 [0 ffffffff a 800] ------- [3:255 18:255 32 0] 3 [1 2] [0 2 0 0->16] [0 0 0 0->0]
r 15.046133853 _11_ RTR  --- 9 DSR 68 [0 ffffffff a 800] ------- [3:255 18:255 32 0] 3 [1 2] [0 2 0 0->16] [0 0 0 0->0]
r 15.046133932 _19_ RTR  --- 9 DSR 68 [0 ffffffff a 800] ------- [3:255 18:255 32 0] 3 [1 2] [0 2 0 0->16] [0 0 0 0->0]
r 15.046133932 _12_ RTR  --- 9 DSR 68 [0 ffffffff a 800] ------- [3:255 18:255 32 0] 3 [1 2] [0 2 0 0->16] [0 0 0 0->0]
r 15.046133932 _6_ RTR  --- 9 DSR 68 [0 ffffffff a 800] ------- [3:255 18:255 32 0] 3 [1 2] [0 2 0 0->16] [0 0 0 0->0]
r 15.046133932 _18_ RTR  --- 9 DSR 68 [0 ffffffff a 800] ------- [3:255 18:255 32 0] 3 [1 2] [0 2 0 0->16] [0 0 0 0->0]
r 15.046133932 _8_ RTR  --- 9 DSR 68 [0 ffffffff a 800] ------- [3:255 18:255 32 0] 3 [1 2] [0 2 0 0->16] [0 0 0 0->0]
r 15.046133932 _14_ RTR  --- 9 DSR 68 [0 ffffffff a 800] ------- [3:255 18:255 32 0] 3 [1 2] [0 2 0 0->16] [0 0 0 0->0]
s 15.046149563 _18_ RTR  --- 10 DSR 60 [0 0 0 0] ------- [18:255 3:255 254 10] 4 [0 2] [1 2 4 3->18] [0 0 0 0->0]
f 15.048932266 _2_ RTR  --- 9 DSR 68 [0 ffffffff 4 800] ------- [3:255 18:255 32 0] 3 [1 2] [0 2 0 0->16] [0 0 0 0->0]
r 15.049538510 _4_ RTR  --- 9 DSR 48 [0 ffffffff 1 800] ------- [3:255 18:255 32 0] 2 [1 2] [0 2 0 0->16] [0 0 0 0->0]
r 15.049538843 _0_ RTR  --- 9 DSR 48 [0 ffffffff 1 800] ------- [3:255 18:255 32 0] 2 [1 2] [0 2 0 0->16] [0 0 0 0->0]
r 15.049538843 _7_ RTR  --- 9 DSR 48 [0 ffffffff 1 800] ------- [3:255 18:255 32 0] 2 [1 2] [0 2 0 0->16] [0 0 0 0->0]
r 15.049538843 _2_ RTR  --- 9 DSR 48 [0 ffffffff 1 800] ------- [3:255 18:255 32 0] 2 [1 2] [0 2 0 0->16] [0 0 0 0->0]
r 15.049538922 _3_ RTR  --- 9 DSR 48 [0 ffffffff 1 800] ------- [3:255 18:255 32 0] 2 [1 2] [0 2 0 0->16] [0 0 0 0->0]
r 15.049538922 _5_ RTR  --- 9 DSR 48 [0 ffffffff 1 800] ------- [3:255 18:255 32 0] 2 [1 2] [0 2 0 0->16] [0 0 0 0->0]
f 15.049608646 _0_ RTR  --- 9 DSR 48 [0 ffffffff 3 800] ------- [3:255 18:255 32 0] 2 [1 2] [0 2 0 0->16] [0 0 0 0->0]
f 15.049962558 _16_ RTR  --- 9 DSR 92 [0 ffffffff a 800] ------- [3:255 18:255 32 0] 4 [1 2] [0 2 0 0->16] [0 0 0 0->0]
f 15.050362160 _11_ RTR  --- 9 DSR 92 [0 ffffffff a 800] ------- [3:255 18:255 32 0] 4 [1 2] [0 2 0 0->16] [0 0 0 0->0]
r 15.050709177 _5_ RTR  --- 9 DSR 68 [0 ffffffff 2 800] ------- [3:255 18:255 32 0] 3 [1 2] [0 2 0 0->16] [0 0 0 0->0]
r 15.050709510 _1_ RTR  --- 9 DSR 68 [0 ffffffff 2 800] ------- [3:255 18:255 32 0] 3 [1 2] [0 2 0 0->16] [0 0 0 0->0]
r 15.050709510 _8_ RTR  --- 9 DSR 68 [0 ffffffff 2 800] ------- [3:255 18:255 32 0] 3 [1 2] [0 2 0 0->16] [0 0 0 0->0]
r 15.050709589 _4_ RTR  --- 9 DSR 68 [0 ffffffff 2 800] ------- [3:255 18:255 32 0] 3 [1 2] [0 2 0 0->16] [0 0 0 0->0]
f 15.050944271 _6_ RTR  --- 9 DSR 48 [0 ffffffff 3 800] ------- [3:255 18:255 32 0] 2 [1 2] [0 2 0 0->16] [0 0 0 0->0]
f 15.051084158 _14_ RTR  --- 9 DSR 92 [0 ffffffff a 800] ------- [3:255 18:255 32 0] 4 [1 2] [0 2 0 0->16] [0 0 0 0->0]
f 15.051351122 _13_ RTR  --- 9 DSR 92 [0 ffffffff a 800] ------- [3:255 18:255 32 0] 4 [1 2] [0 2 0 0->16] [0 0 0 0->0]
f 15.051672908 _19_ RTR  --- 9 DSR 92 [0 ffffffff a 800] ------- [3:255 18:255 32 0] 4 [1 2] [0 2 0 0->16] [0 0 0 0->0]
r 15.051944843 _6_ RTR  --- 9 DSR 48 [0 ffffffff 9 800] ------- [3:255 18:255 32 0] 2 [1 2] [0 2 0 0->16] [0 0 0 0->0]
r 15.051944843 _12_ RTR  --- 9 DSR 48 [0 ffffffff 9 800] ------- [3:255 18:255 32 0] 2 [1 2] [0 2 0 0->16] [0 0 0 0->0]
r 15.051945177 _3_ RTR  --- 9 DSR 48 [0 ffffffff 9 800] ------- [3:255 18:255 32 0] 2 [1 2] [0 2 0 0->16] [0 0 0 0->0]
r 15.051945177 _15_ RTR  --- 9 DSR 48 [0 ffffffff 9 800] ------- [3:255 18:255 32 0] 2 [1 2] [0 2 0 0->16] [0 0 0 0->0]
r 15.051945177 _10_ RTR  --- 9 DSR 48 [0 ffffffff 9 800] ------- [3:255 18:255 32 0] 2 [1 2] [0 2 0 0->16] [0 0 0 0->0]
r 15.051945255 _19_ RTR  --- 9 DSR 48 [0 ffffffff 9 800] ------- [3:255 18:255 32 0] 2 [1 2] [0 2 0 0->16] [0 0 0 0->0]
r 15.051945255 _7_ RTR  --- 9 DSR 48 [0 ffffffff 9 800] ------- [3:255 18:255 32 0] 2 [1 2] [0 2 0 0->16] [0 0 0 0->0]
r 15.051945255 _13_ RTR  --- 9 DSR 48 [0 ffffffff 9 800] ------- [3:255 18:255 32 0] 2 [1 2] [0 2 0 0->16] [0 0 0 0->0]
f 15.051978284 _5_ RTR  --- 9 DSR 68 [0 ffffffff 4 800] ------- [3:255 18:255 32 0] 3 [1 2] [0 2 0 0->16] [0 0 0 0->0]
s 15.052067786 _0_ AGT  --- 11 cbr 512 [0 0 0 0] ------- [0:0 18:0 32 0] [1] 0 0
r 15.052067786 _0_ RTR  --- 11 cbr 512 [0 0 0 0] ------- [0:0 18:0 32 0] [1] 0 0
f 15.052071861 _8_ RTR  --- 9 DSR 68 [0 ffffffff 4 800] ------- [3:255 18:255 32 0] 3 [1 2] [0 2 0 0->16] [0 0 0 0->0]
r 15.052815589 _4_ RTR  --- 9 DSR 48 [0 ffffffff 7 800] ------- [3:255 18:255 32 0] 2 [1 2] [0 2 0 0->16] [0 0 0 0->0]
r 15.052815589 _10_ RTR  --- 9 DSR 48 [0 ffffffff 7 800] ------- [3:255 18:255 32 0] 2 [1 2] [0 2 0 0->16] [0 0 0 0->0]
r 15.052815922 _1_ RTR  --- 9 DSR 48 [0 ffffffff 7 800] ------- [3:255 18:255 32 0] 2 [1 2] [0 2 0 0->16] [0 0 0 0->0]
r 15.052815922 _6_ RTR  --- 9 DSR 48 [0 ffffffff 7 800] ------- [3:255 18:255 32 0] 2 [1 2] [0 2 0 0->16] [0 0 0 0->0]
r 15.052815922 _13_ RTR  --- 9 DSR 48 [0 ffffffff 7 800] ------- [3:255 18:255 32 0] 2 [1 2] [0 2 0 0->16] [0 0 0 0->0]
r 15.052815922 _8_ RTR  --- 9 DSR 48 [0 ffffffff 7 800] ------- [3:255 18:255 32 0] 2 [1 2] [0 2 0 0->16] [0 0 0 0->0]
r 15.052816001 _9_ RTR  --- 9 DSR 48 [0 ffffffff 7 800] ------- [3:255 18:255 32 0] 2 [1 2] [0 2 0 0->16] [0 0 0 0->0]
r 15.052816001 _3_ RTR  --- 9 DSR 48 [0 ffffffff 7 800] ------- [3:255 18:255 32 0] 2 [1 2] [0 2 0 0->16] [0 0 0 0->0]
r 15.052816001 _5_ RTR  --- 9 DSR 48 [0 ffffffff 7 800] ------- [3:255 18:255 32 0] 2 [1 2] [0 2 0 0->16] [0 0 0 0->0]
r 15.052816001 _11_ RTR  --- 9 DSR 48 [0 ffffffff 7 800] ------- [3:255 18:255 32 0] 2 [1 2] [0 2 0 0->16] [0 0 0 0->0]
f 15.052978203 _15_ RTR  --- 9 DSR 68 [0 ffffffff 9 800] ------- [3:255 18:255 32 0] 3 [1 2] [0 2 0 0->16] [0 0 0 0->0]
r 15.054038255 _10_ RTR  --- 9 DSR 92 [0 ffffffff d 800] ------- [3:255 18:255 32 0] 4 [1 2] [0 2 0 0->16] [0 0 0 0->0]
r 15.054038255 _16_ RTR  --- 9 DSR 92 [0 ffffffff d 800] ------- [3:255 18:255 32 0] 4 [1 2] [0 2 0 0->16] [0 0 0 0->0]
r 15.054038393 _19_ RTR  --- 9 DSR 92 [0 ffffffff d 800] ------- [3:255 18:255 32 0] 4 [1 2] [0 2 0 0->16] [0 0 0 0->0]
r 15.054038393 _18_ RTR  --- 9 DSR 92 [0 ffffffff d 800] ------- [3:255 18:255 32 0] 4 [1 2] [0 2 0 0->16] [0 0 0 0->0]
r 15.054038589 _7_ RTR  --- 9 DSR 92 [0 ffffffff d 800] ------- [3:255 18:255 32 0] 4 [1 2] [0 2 0 0->16] [0 0 0 0->0]
r 15.054038589 _12_ RTR  --- 9 DSR 92 [0 ffffffff d 800] ------- [3:255 18:255 32 0] 4 [1 2] [0 2 0 0->16] [0 0 0 0->0]
r 15.054038589 _14_ RTR  --- 9 DSR 92 [0 ffffffff d 800] ------- [3:255 18:255 32 0] 4 [1 2] [0 2 0 0->16] [0 0 0 0->0]
r 15.054038667 _15_ RTR  --- 9 DSR 92 [0 ffffffff d 800] ------- [3:255 18:255 32 0] 4 [1 2] [0 2 0 0->16] [0 0 0 0->0]
r 15.054038667 _9_ RTR  --- 9 DSR 92 [0 ffffffff d 800] ------- [3:255 18:255 32 0] 4 [1 2] [0 2 0 0->16] [0 0 0 0->0]
r 15.054038667 _11_ RTR  --- 9 DSR 92 [0 ffffffff d 800] ------- [3:255 18:255 32 0] 4 [1 2] [0 2 0 0->16] [0 0 0 0->0]
r 15.054038667 _17_ RTR  --- 9 DSR 92 [0 ffffffff d 800] ------- [3:255 18:255 32 0] 4 [1 2] [0 2 0 0->16] [0 0 0 0->0]
s 15.054038667 _17_ RTR  --- 14 DSR 72 [0 0 0 0] ------- [17:255 3:255 255 13] 5 [0 2] [1 2 6 3->18] [0 0 0 0->0]
f 15.054684358 _12_ RTR  --- 9 DSR 92 [0 ffffffff a 800] ------- [3:255 18:255 32 0] 4 [1 2] [0 2 0 0->16] [0 0 0 0->0]
r 15.055261001 _8_ RTR  --- 9 DSR 92 [0 ffffffff b 800] ------- [3:255 18:255 32 0] 4 [1 2] [0 2 0 0->16] [0 0 0 0->0]
r 15.055261001 _14_ RTR  --- 9 DSR 92 [0 ffffffff b 800] ------- [3:255 18:255 32 0] 4 [1 2] [0 2 0 0->16] [0 0 0 0->0]
r 15.055261334 _5_ RTR  --- 9 DSR 92 [0 ffffffff b 800] ------- [3:255 18:255 32 0] 4 [1 2] [0 2 0 0->16] [0 0 0 0->0]
r 15.055261334 _10_ RTR  --- 9 DSR 92 [0 ffffffff b 800] ------- [3:255 18:255 32 0] 4 [1 2] [0 2 0 0->16] [0 0 0 0->0]
r 15.055261334 _17_ RTR  --- 9 DSR 92 [0 ffffffff b 800] ------- [3:255 18:255 32 0] 4 [1 2] [0 2 0 0->16] [0 0 0 0->0]
r 15.055261413 _18_ RTR  --- 9 DSR 92 [0 ffffffff b 800] ------- [3:255 18:255 32 0] 4 [1 2] [0 2 0 0->16] [0 0 0 0->0]
r 15.055261413 _13_ RTR  --- 9 DSR 92 [0 ffffffff b 800] ------- [3:255 18:255 32 0] 4 [1 2] [0 2 0 0->16] [0 0 0 0->0]
r 15.055261413 _7_ RTR  --- 9 DSR 92 [0 ffffffff b 800] ------- [3:255 18:255 32 0] 4 [1 2] [0 2 0 0->16] [0 0 0 0->0]
r 15.057281570 _13_ RTR  --- 14 DSR 72 [13a d 11 800] ------- [17:255 3:255 255 13] 5 [0 2] [1 2 6 3->18] [0 0 0 0->0]
f 15.057281570 _13_ RTR  --- 14 DSR 72 [13a d 11 800] ------- [17:255 3:255 254 10] 5 [0 2] [1 2 6 3->18] [0 0 0 0->0]
r 15.057513903 _3_ RTR  --- 9 DSR 48 [0 ffffffff 0 800] ------- [3:255 18:255 32 0] 2 [1 2] [0 2 0 0->16] [0 0 0 0->0]
s 15.058488166 _18_ RTR  --- 15 DSR 68 [0 0 0 0] ------- [18:255 3:255 254 11] 5 [0 2] [1 2 5 3->18] [0 0 0 0->0]
r 15.058998570 _11_ RTR  --- 9 DSR 92 [0 ffffffff e 800] ------- [3:255 18:255 32 0] 4 [1 2] [0 2 0 0->16] [0 0 0 0->0]
r 15.058998570 _17_ RTR  --- 9 DSR 92 [0 ffffffff e 800] ------- [3:255 18:255 32 0] 4 [1 2] [0 2 0 0->16] [0 0 0 0->0]
r 15.058998708 _18_ RTR  --- 9 DSR 92 [0 ffffffff e 800] ------- [3:255 18:255 32 0] 4 [1 2] [0 2 0 0->16] [0 0 0 0->0]
r 15.058998903 _8_ RTR  --- 9 DSR 92 [0 ffffffff e 800] ------- [3:255 18:255 32 0] 4 [1 2] [0 2 0 0->16] [0 0 0 0->0]
r 15.058998903 _13_ RTR  --- 9 DSR 92 [0 ffffffff e 800] ------- [3:255 18:255 32 0] 4 [1 2] [0 2 0 0->16] [0 0 0 0->0]
r 15.058998982 _16_ RTR  --- 9 DSR 92 [0 ffffffff e 800] ------- [3:255 18:255 32 0] 4 [1 2] [0 2 0 0->16] [0 0 0 0->0]
r 15.058998982 _10_ RTR  --- 9 DSR 92 [0 ffffffff e 800] ------- [3:255 18:255 32 0] 4 [1 2] [0 2 0 0->16] [0 0 0 0->0]
s 15.059313365 _3_ AGT  --- 17 cbr 512 [0 0 0 0] ------- [3:0 18:1 32 0] [1] 0 0
r 15.059313365 _3_ RTR  --- 17 cbr 512 [0 0 0 0] ------- [3:0 18:1 32 0] [1] 0 0
r 15.060089237 _5_ RTR  --- 9 DSR 68 [0 ffffffff 8 800] ------- [3:255 18:255 32 0] 3 [1 2] [0 2 0 0->16] [0 0 0 0->0]
r 15.060089237 _11_ RTR  --- 9 DSR 68 [0 ffffffff 8 800] ------- [3:255 18:255 32 0] 3 [1 2] [0 2 0 0->16] [0 0 0 0->0]
r 15.060089570 _2_ RTR  --- 9 DSR 68 [0 ffffffff 8 800] ------- [3:255 18:255 32 0] 3 [1 2] [0 2 0 0->16] [0 0 0 0->0]
r 15.060089570 _7_ RTR  --- 9 DSR 68 [0 ffffffff 8 800] ------- [3:255 18:255 32 0] 3 [1 2] [0 2 0 0->16] [0 0 0 0->0]
r 15.060089570 _14_ RTR  --- 9 DSR 68 [0 ffffffff 8 800] ------- [3:255 18:255 32 0] 3 [1 2] [0 2 0 0->16] [0 0 0 0->0]
r 15.060089649 _10_ RTR  --- 9 DSR 68 [0 ffffffff 8 800] ------- [3:255 18:255 32 0] 3 [1 2] [0 2 0 0->16] [0 0 0 0->0]
r 15.060089649 _4_ RTR  --- 9 DSR 68 [0 ffffffff 8 800] ------- [3:255 18:255 32 0] 3 [1 2] [0 2 0 0->16] [0 0 0 0->0]
s 15.060202506 _18_ RTR  --- 16 DSR 68 [0 0 0 0] ------- [18:255 3:255 254 14] 5 [0 2] [1 2 5 3->18] [0 0 0 0->0]
r 15.061379570 _2_ RTR  --- 9 DSR 68 [0 ffffffff 5 800] ------- [3:255 18:255 32 0] 3 [1 2] [0 2 0 0->16] [0 0 0 0->0]
r 15.061379570 _8_ RTR  --- 9 DSR 68 [0 ffffffff 5 800] ------- [3:255 18:255 32 0] 3 [1 2] [0 2 0 0->16] [0 0 0 0->0]
r 15.061379903 _4_ RTR  --- 9 DSR 68 [0 ffffffff 5 800] ------- [3:255 18:255 32 0] 3 [1 2] [0 2 0 0->16] [0 0 0 0->0]
r 15.061379903 _11_ RTR  --- 9 DSR 68 [0 ffffffff 5 800] ------- [3:255 18:255 32 0] 3 [1 2] [0 2 0 0->16] [0 0 0 0->0]
r 15.061379982 _1_ RTR  --- 9 DSR 68 [0 ffffffff 5 800] ------- [3:255 18:255 32 0] 3 [1 2] [0 2 0 0->16] [0 0 0 0->0]
s 15.063683999 _18_ RTR  --- 13 DSR 68 [0 0 0 0] ------- [18:255 3:255 254 13] 5 [0 2] [1 2 5 3->18] [0 0 0 0->0]
r 15.064053806 _10_ RTR  --- 10 DSR 60 [13a a 12 800] ------- [18:255 3:255 254 10] 4 [0 2] [1 2 4 3->18] [0 0 0 0->0]
f 15.064053806 _10_ RTR  --- 10 DSR 60 [13a a 12 800] ------- [18:255 3:255 253 4] 4 [0 2] [1 2 4 3->18] [0 0 0 0->0]
r 15.066107139 _10_ RTR  --- 14 DSR 72 [13a a d 800] ------- [17:255 3:255 254 10] 5 [0 2] [1 2 6 3->18] [0 0 0 0->0]
f 15.066107139 _10_ RTR  --- 14 DSR 72 [13a a d 800] ------- [17:255 3:255 253 4] 5 [0 2] [1 2 6 3->18] [0 0 0 0->0]
r 15.067764218 _15_ RTR  --- 9 DSR 92 [0 ffffffff 13 800] ------- [3:255 18:255 32 0] 4 [1 2] [0 2 0 0->16] [0 0 0 0->0]
r 15.067764218 _16_ RTR  --- 9 DSR 92 [0 ffffffff 13 800] ------- [3:255 18:255 32 0] 4 [1 2] [0 2 0 0->16] [0 0 0 0->0]
r 15.067764356 _12_ RTR  --- 9 DSR 92 [0 ffffffff 13 800] ------- [3:255 18:255 32 0] 4 [1 2] [0 2 0 0->16] [0 0 0 0->0]
r 15.067764356 _13_ RTR  --- 9 DSR 92 [0 ffffffff 13 800] ------- [3:255 18:255 32 0] 4 [1 2] [0 2 0 0->16] [0 0 0 0->0]
r 15.067764551 _18_ RTR  --- 9 DSR 92 [0 ffffffff 13 800] ------- [3:255 18:255 32 0] 4 [1 2] [0 2 0 0->16] [0 0 0 0->0]
r 15.067764630 _9_ RTR  --- 9 DSR 92 [0 ffffffff 13 800] ------- [3:255 18:255 32 0] 4 [1 2] [0 2 0 0->16] [0 0 0 0->0]
r 15.067764630 _10_ RTR  --- 9 DSR 92 [0 ffffffff 13 800] ------- [3:255 18:255 32 0] 4 [1 2] [0 2 0 0->16] [0 0 0 0->0]
r 15.069266551 _13_ RTR  --- 9 DSR 92 [0 ffffffff 10 800] ------- [3:255 18:255 32 0] 4 [1 2] [0 2 0 0->16] [0 0 0 0->0]
r 15.069266551 _19_ RTR  --- 9 DSR 92 [0 ffffffff 10 800] ------- [3:255 18:255 32 0] 4 [1 2] [0 2 0 0->16] [0 0 0 0->0]
r 15.069266551 _18_ RTR  --- 9 DSR 92 [0 ffffffff 10 800] ------- [3:255 18:255 32 0] 4 [1 2] [0 2 0 0->16] [0 0 0 0->0]
r 15.069266885 _10_ RTR  --- 9 DSR 92 [0 ffffffff 10 800] ------- [3:255 18:255 32 0] 4 [1 2] [0 2 0 0->16] [0 0 0 0->0]
r 15.069266885 _15_ RTR  --- 9 DSR 92 [0 ffffffff 10 800] ------- [3:255 18:255 32 0] 4 [1 2] [0 2 0 0->16] [0 0 0 0->0]
r 15.069266885 _17_ RTR  --- 9 DSR 92 [0 ffffffff 10 800] ------- [3:255 18:255 32 0] 4 [1 2] [0 2 0 0->16] [0 0 0 0->0]
r 15.069266963 _12_ RTR  --- 9 DSR 92 [0 ffffffff 10 800] ------- [3:255 18:255 32 0] 4 [1 2] [0 2 0 0->16] [0 0 0 0->0]
r 15.069266963 _14_ RTR  --- 9 DSR 92 [0 ffffffff 10 800] ------- [3:255 18:255 32 0] 4 [1 2] [0 2 0 0->16] [0 0 0 0->0]
r 15.070910885 _4_ RTR  --- 10 DSR 60 [13a 4 a 800] ------- [18:255 3:255 253 4] 4 [0 2] [1 2 4 3->18] [0 0 0 0->0]
f 15.070910885 _4_ RTR  --- 10 DSR 60 [13a 4 a 800] ------- [18:255 3:255 252 3] 4 [0 2] [1 2 4 3->18] [0 0 0 0->0]
s 15.071706238 _18_ RTR  --- 19 DSR 68 [0 0 0 0] ------- [18:255 3:255 254 19] 5 [0 2] [1 2 5 3->18] [0 0 0 0->0]
r 15.072175963 _3_ RTR  --- 9 DSR 48 [0 ffffffff 6 800] ------- [3:255 18:255 32 0] 2 [1 2] [0 2 0 0->16] [0 0 0 0->0]
r 15.072175963 _9_ RTR  --- 9 DSR 48 [0 ffffffff 6 800] ------- [3:255 18:255 32 0] 2 [1 2] [0 2 0 0->16] [0 0 0 0->0]
r 15.072176297 _0_ RTR  --- 9 DSR 48 [0 ffffffff 6 800] ------- [3:255 18:255 32 0] 2 [1 2] [0 2 0 0->16] [0 0 0 0->0]
r 15.072176297 _12_ RTR  --- 9 DSR 48 [0 ffffffff 6 800] ------- [3:255 18:255 32 0] 2 [1 2] [0 2 0 0->16] [0 0 0 0->0]
r 15.072176297 _7_ RTR  --- 9 DSR 48 [0 ffffffff 6 800] ------- [3:255 18:255 32 0] 2 [1 2] [0 2 0 0->16] [0 0 0 0->0]
r 15.072176376 _4_ RTR  --- 9 DSR 48 [0 ffffffff 6 800] ------- [3:255 18:255 32 0] 2 [1 2] [0 2 0 0->16] [0 0 0 0->0]
r 15.072176376 _10_ RTR  --- 9 DSR 48 [0 ffffffff 6 800] ------- [3:255 18:255 32 0] 2 [1 2] [0 2 0 0->16] [0 0 0 0->0]
r 15.073498630 _9_ RTR  --- 9 DSR 92 [0 ffffffff c 800] ------- [3:255 18:255 32 0] 4 [1 2] [0 2 0 0->16] [0 0 0 0->0]
r 15.073498630 _15_ RTR  --- 9 DSR 92 [0 ffffffff c 800] ------- [3:255 18:255 32 0] 4 [1 2] [0 2 0 0->16] [0 0 0 0->0]
r 15.073498768 _19_ RTR  --- 9 DSR 92 [0 ffffffff c 800] ------- [3:255 18:255 32 0] 4 [1 2] [0 2 0 0->16] [0 0 0 0->0]
r 15.073498963 _6_ RTR  --- 9 DSR 92 [0 ffffffff c 800] ------- [3:255 18:255 32 0] 4 [1 2] [0 2 0 0->16] [0 0 0 0->0]
r 15.073498963 _13_ RTR  --- 9 DSR 92 [0 ffffffff c 800] ------- [3:255 18:255 32 0] 4 [1 2] [0 2 0 0->16] [0 0 0 0->0]
r 15.073499042 _10_ RTR  --- 9 DSR 92 [0 ffffffff c 800] ------- [3:255 18:255 32 0] 4 [1 2] [0 2 0 0->16] [0 0 0 0->0]
r 15.073499042 _16_ RTR  --- 9 DSR 92 [0 ffffffff c 800] ------- [3:255 18:255 32 0] 4 [1 2] [0 2 0 0->16] [0 0 0 0->0]
s 15.075216495 _18_ RTR  --- 20 DSR 68 [0 0 0 0] ------- [18:255 3:255 254 16] 5 [0 2] [1 2 5 3->18] [0 0 0 0->0]
r 15.075419042 _4_ RTR  --- 14 DSR 72 [13a 4 a 800] ------- [17:255 3:255 253 4] 5 [0 2] [1 2 6 3->18] [0 0 0 0->0]
f 15.075419042 _4_ RTR  --- 14 DSR 72 [13a 4 a 800] ------- [17:255 3:255 252 3] 5 [0 2] [1 2 6 3->18] [0 0 0 0->0]
r 15.077517042 _3_ RTR  --- 10 DSR 60 [13a 3 4 800] ------- [18:255 3:255 252 3] 4 [0 2] [1 2 4 3->18] [0 0 0 0->0]
SFESTs 15.077517042 _3_ 2 [3 -> 18] 1(1) to 4 [3 |4 10 18 ]
SFESTs 15.077517042 _3_ 17 [3 -> 18] 1(1) to 4 [3 |4 10 18 ]
s 15.077517042 _3_ RTR  --- 2 cbr 556 [0 0 0 0] ------- [3:0 18:1 32 4] [0] 0 0
r 15.083523042 _4_ RTR  --- 2 cbr 556 [13a 4 3 800] ------- [3:0 18:1 32 4] [0] 1 0
f 15.083523042 _4_ RTR  --- 2 cbr 556 [13a 4 3 800] ------- [3:0 18:1 31 10] [0] 1 0
SFESTs 15.085406921 _0_ 0 [0 -> 18] 1(1) to 3 [0 |3 4 10 18 ]
SFESTs 15.085406921 _0_ 11 [0 -> 18] 1(1) to 3 [0 |3 4 10 18 ]
s 15.085406921 _0_ RTR  --- 0 cbr 560 [0 0 0 0] ------- [0:0 18:0 32 3] [0] 0 0
s 15.085406921 _0_ RTR  --- 11 cbr 560 [0 0 0 0] ------- [0:0 18:0 32 3] [1] 0 0
r 15.085989831 _13_ RTR  --- 13 DSR 68 [13a d 12 800] ------- [18:255 3:255 254 13] 5 [0 2] [1 2 5 3->18] [0 0 0 0->0]
f 15.085989831 _13_ RTR  --- 13 DSR 68 [13a d 12 800] ------- [18:255 3:255 253 10] 5 [0 2] [1 2 5 3->18] [0 0 0 0->0]
r 15.089296067 _3_ RTR  --- 14 DSR 72 [13a 3 4 800] ------- [17:255 3:255 252 3] 5 [0 2] [1 2 6 3->18] [0 0 0 0->0]
r 15.095333400 _3_ RTR  --- 0 cbr 560 [13a 3 0 800] ------- [0:0 18:0 32 3] [0] 1 0
f 15.095333400 _3_ RTR  --- 0 cbr 560 [13a 3 0 800] ------- [0:0 18:0 31 4] [0] 1 0
s 15.101406146 _4_ RTR  --- 23 DSR 52 [0 0 0 0] ------- [4:255 0:255 255 0] 2 [0 0] [1 0 4 0->18] [0 0 0 0->0]
r 15.101430733 _3_ RTR  --- 11 cbr 560 [13a 3 0 800] ------- [0:0 18:0 32 3] [1] 1 0
f 15.101430733 _3_ RTR  --- 11 cbr 560 [13a 3 0 800] ------- [0:0 18:0 31 4] [1] 1 0
s 15.107517042 _3_ RTR  --- 17 cbr 556 [0 0 0 0] ------- [3:0 18:1 32 4] [1] 0 0
r 15.107548733 _4_ RTR  --- 0 cbr 560 [13a 4 3 800] ------- [0:0 18:0 31 4] [0] 2 0
f 15.107548733 _4_ RTR  --- 0 cbr 560 [13a 4 3 800] ------- [0:0 18:0 30 10] [0] 2 0
r 15.113554733 _10_ RTR  --- 2 cbr 556 [13a a 4 800] ------- [3:0 18:1 31 10] [0] 2 0
f 15.113554733 _10_ RTR  --- 2 cbr 556 [13a a 4 800] ------- [3:0 18:1 30 18] [0] 2 0
r 15.115666067 _10_ RTR  --- 13 DSR 68 [13a a d 800] ------- [18:255 3:255 253 10] 5 [0 2] [1 2 5 3->18] [0 0 0 0->0]
f 15.115666067 _10_ RTR  --- 13 DSR 68 [13a a d 800] ------- [18:255 3:255 252 4] 5 [0 2] [1 2 5 3->18] [0 0 0 0->0]
r 15.121612303 _18_ RTR  --- 2 cbr 556 [13a 12 a 800] ------- [3:0 18:1 30 18] [0] 3 0
r 15.121612303 _18_ AGT  --- 2 cbr 512 [13a 12 a 800] ------- [3:0 18:1 30 18] [0] 3 0
r 15.123795048 _4_ RTR  --- 13 DSR 68 [13a 4 a 800] ------- [18:255 3:255 252 4] 5 [0 2] [1 2 5 3->18] [0 0 0 0->0]
f 15.123795048 _4_ RTR  --- 13 DSR 68 [13a 4 a 800] ------- [18:255 3:255 251 3] 5 [0 2] [1 2 5 3->18] [0 0 0 0->0]
r 15.129963324 _4_ RTR  --- 11 cbr 560 [13a 4 3 800] ------- [0:0 18:0 31 4] [1] 2 0
f 15.129963324 _4_ RTR  --- 11 cbr 560 [13a 4 3 800] ------- [0:0 18:0 30 10] [1] 2 0
r 15.131957560 _0_ RTR  --- 23 DSR 52 [13a 0 4 800] ------- [4:255 0:255 255 0] 2 [0 0] [1 0 4 0->18] [0 0 0 0->0]
r 15.134120306 _3_ RTR  --- 13 DSR 68 [13a 3 4 800] ------- [18:255 3:255 251 3] 5 [0 2] [1 2 5 3->18] [0 0 0 0->0]
s 15.136316010 _7_ AGT  --- 24 cbr 512 [0 0 0 0] ------- [7:0 11:0 32 0] [1] 0 0
r 15.136316010 _7_ RTR  --- 24 cbr 512 [0 0 0 0] ------- [7:0 11:0 32 0] [1] 0 0
SFESTs 15.136316010 _7_ 24 [7 -> 11] 1(1) to 11 [7 |11 ]
s 15.136316010 _7_ RTR  --- 24 cbr 548 [0 0 0 0] ------- [7:0 11:0 32 11] [1] 0 0
r 15.140206306 _4_ RTR  --- 17 cbr 556 [13a 4 3 800] ------- [3:0 18:1 32 4] [1] 1 0
f 15.140206306 _4_ RTR  --- 17 cbr 556 [13a 4 3 800] ------- [3:0 18:1 31 10] [1] 1 0
r 15.146464306 _10_ RTR  --- 0 cbr 560 [13a a 4 800] ------- [0:0 18:0 30 10] [0] 3 0
f 15.146464306 _10_ RTR  --- 0 cbr 560 [13a a 4 800] ------- [0:0 18:0 29 18] [0] 3 0
r 15.152506875 _11_ RTR  --- 24 cbr 548 [13a b 7 800] ------- [7:0 11:0 32 11] [1] 1 0
r 15.152506875 _11_ AGT  --- 24 cbr 512 [13a b 7 800] ------- [7:0 11:0 32 11] [1] 1 0
r 15.158485778 _18_ RTR  --- 0 cbr 560 [13a 12 a 800] ------- [0:0 18:0 29 18] [0] 4 0
r 15.158485778 _18_ AGT  --- 0 cbr 512 [13a 12 a 800] ------- [0:0 18:0 29 18] [0] 4 0
r 15.164949152 _10_ RTR  --- 11 cbr 560 [13a a 4 800] ------- [0:0 18:0 30 10] [1] 3 0
f 15.164949152 _10_ RTR  --- 11 cbr 560 [13a a 4 800] ------- [0:0 18:0 29 18] [1] 3 0
r 15.171115819 _10_ RTR  --- 17 cbr 556 [13a a 4 800] ------- [3:0 18:1 31 10] [1] 2 0
f 15.171115819 _10_ RTR  --- 17 cbr 556 [13a a 4 800] ------- [3:0 18:1 30 18] [1] 2 0
s 15.172775300 _0_ AGT  --- 25 cbr 512 [0 0 0 0] ------- [0:0 18:0 32 0] [2] 0 0
r 15.172775300 _0_ RTR  --- 25 cbr 512 [0 0 0 0] ------- [0:0 18:0 32 0] [2] 0 0
SFESTs 15.172775300 _0_ 25 [0 -> 18] 3(1) to 4 [0 |4 10 18 ]
s 15.172775300 _0_ RTR  --- 25 cbr 556 [0 0 0 0] ------- [0:0 18:0 32 4] [2] 0 0
r 15.177134055 _18_ RTR  --- 11 cbr 560 [13a 12 a 800] ------- [0:0 18:0 29 18] [1] 4 0
r 15.177134055 _18_ AGT  --- 11 cbr 512 [13a 12 a 800] ------- [0:0 18:0 29 18] [1] 4 0
r 15.183161036 _18_ RTR  --- 17 cbr 556 [13a 12 a 800] ------- [3:0 18:1 30 18] [1] 3 0
r 15.183161036 _18_ AGT  --- 17 cbr 512 [13a 12 a 800] ------- [3:0 18:1 30 18] [1] 3 0
r 15.189357729 _4_ RTR  --- 25 cbr 556 [13a 4 0 800] ------- [0:0 18:0 32 4] [2] 1 0
f 15.189357729 _4_ RTR  --- 25 cbr 556 [13a 4 0 800] ------- [0:0 18:0 31 10] [2] 1 0
r 15.195503729 _10_ RTR  --- 25 cbr 556 [13a a 4 800] ------- [0:0 18:0 31 10] [2] 2 0
f 15.195503729 _10_ RTR  --- 25 cbr 556 [13a a 4 800] ------- [0:0 18:0 30 18] [2] 2 0
s 15.196986691 _7_ AGT  --- 26 cbr 512 [0 0 0 0] ------- [7:0 11:0 32 0] [2] 0 0
r 15.196986691 _7_ RTR  --- 26 cbr 512 [0 0 0 0] ------- [7:0 11:0 32 0] [2] 0 0
SFESTs 15.196986691 _7_ 26 [7 -> 11] 1(1) to 11 [7 |11 ]
s 15.196986691 _7_ RTR  --- 26 cbr 548 [0 0 0 0] ------- [7:0 11:0 32 11] [2] 0 0
s 15.198305092 _3_ AGT  --- 27 cbr 512 [0 0 0 0] ------- [3:0 18:1 32 0] [2] 0 0
r 15.198305092 _3_ RTR  --- 27 cbr 512 [0 0 0 0] ------- [3:0 18:1 32 0] [2] 0 0
SFESTs 15.198305092 _3_ 27 [3 -> 18] 1(1) to 4 [3 |4 10 18 ]
s 15.198305092 _3_ RTR  --- 27 cbr 556 [0 0 0 0] ------- [3:0 18:1 32 4] [2] 0 0
r 15.201869965 _18_ RTR  --- 25 cbr 556 [13a 12 a 800] ------- [0:0 18:0 30 18] [2] 3 0
r 15.201869965 _18_ AGT  --- 25 cbr 512 [13a 12 a 800] ------- [0:0 18:0 30 18] [2] 3 0
r 15.208137255 _11_ RTR  --- 26 cbr 548 [13a b 7 800] ------- [7:0 11:0 32 11] [2] 1 0
r 15.208137255 _11_ AGT  --- 26 cbr 512 [13a b 7 800] ------- [7:0 11:0 32 11] [2] 1 0
r 15.214628746 _4_ RTR  --- 27 cbr 556 [13a 4 3 800] ------- [3:0 18:1 32 4] [2] 1 0
f 15.214628746 _4_ RTR  --- 27 cbr 556 [13a 4 3 800] ------- [3:0 18:1 31 10] [2] 1 0
r 15.220934746 _10_ RTR  --- 27 cbr 556 [13a a 4 800] ------- [3:0 18:1 31 10] [2] 2 0
f 15.220934746 _10_ RTR  --- 27 cbr 556 [13a a 4 800] ------- [3:0 18:1 30 18] [2] 2 0
r 15.227040982 _18_ RTR  --- 27 cbr 556 [13a 12 a 800] ------- [3:0 18:1 30 18] [2] 3 0