n -t * -s 0  -x 100 -y 0 -Z 0 -z 30  -v circle -c black
n -t * -s 1  -x 300 -y 0 -Z 0 -z 30  -v circle -c black
n -t * -s 2  -x 500 -y 0 -Z 0 -z 30  -v circle -c black
n -t * -s 3  -x 100 -y 100 -Z 0 -z 30  -v circle -c black
n -t * -s 4  -x 300 -y 100 -Z 0 -z 30  -v circle -c black
n -t * -s 5  -x 500 -y 100 -Z 0 -z 30  -v circle -c black
n -t * -s 6  -x 100 -y 200 -Z 0 -z 30  -v circle -c black
n -t * -s 7  -x 300 -y 200 -Z 0 -z 30  -v circle -c black
n -t * -s 8  -x 500 -y 200 -Z 0 -z 30  -v circle -c black
n -t * -s 9  -x 100 -y 300 -Z 0 -z 30  -v circle -c black
n -t * -s 10  -x 300 -y 300 -Z 0 -z 30  -v circle -c black
n -t * -s 11  -x 500 -y 300 -Z 0 -z 30  -v circle -c black
n -t * -s 12  -x 100 -y 400 -Z 0 -z 30  -v circle -c black
n -t * -s 13  -x 300 -y 400 -Z 0 -z 30  -v circle -c black
n -t * -s 14  -x 500 -y 400 -Z 0 -z 30  -v circle -c black
n -t * -s 15  -x 100 -y 500 -Z 0 -z 30  -v circle -c black
n -t * -s 16  -x 300 -y 500 -Z 0 -z 30  -v circle -c black
n -t * -s 17  -x 500 -y 500 -Z 0 -z 30  -v circle -c black
n -t * -s 18  -x 400 -y 500 -Z 0 -z 30  -v circle -c black
n -t * -s 19  -x 200 -y 500 -Z 0 -z 30  -v circle -c black
V -t * -v 1.0a5 -a 0
W -t * -x 500 -y 500
A -t * -n 1 -p 0 -o 0xffffffff -c 31 -a 1
A -t * -h 1 -m 2147483647 -s 0
+ -t 15.000000000 -s 0 -d -1 -p cbr -e 512 -c 2 -a 0 -i 0 -k AGT 
- -t 15.000000000 -s 0 -d -1 -p cbr -e 512 -c 2 -a 0 -i 0 -k AGT
h -t 15.000000000 -s 0 -d -1 -p cbr -e 512 -c 2 -a 0 -i 0 -k AGT
+ -t 15.000000000 -s 3 -d -1 -p cbr -e 512 -c 2 -a 0 -i 2 -k AGT 
- -t 15.000000000 -s 3 -d -1 -p cbr -e 512 -c 2 -a 0 -i 2 -k AGT
h -t 15.000000000 -s 3 -d -1 -p cbr -e 512 -c 2 -a 0 -i 2 -k AGT
+ -t 15.000000000 -s 7 -d -1 -p cbr -e 512 -c 2 -a 0 -i 4 -k AGT 
- -t 15.000000000 -s 7 -d -1 -p cbr -e 512 -c 2 -a 0 -i 4 -k AGT
h -t 15.000000000 -s 7 -d -1 -p cbr -e 512 -c 2 -a 0 -i 4 -k AGT
+ -t 15.002120514 -s 3 -d -1 -p DSR -e 32 -c 2 -a 0 -i 3 -k RTR 
- -t 15.002120514 -s 3 -d -1 -p DSR -e 32 -c 2 -a 0 -i 3 -k RTR
h -t 15.002120514 -s 3 -d -1 -p DSR -e 32 -c 2 -a 0 -i 3 -k RTR
+ -t 15.004507296 -s 7 -d -1 -p DSR -e 32 -c 2 -a 0 -i 5 -k RTR 
- -t 15.004507296 -s 7 -d -1 -p DSR -e 32 -c 2 -a 0 -i 5 -k RTR
h -t 15.004507296 -s 7 -d -1 -p DSR -e 32 -c 2 -a 0 -i 5 -k RTR
+ -t 15.009488615 -s 0 -d -1 -p DSR -e 32 -c 2 -a 0 -i 1 -k RTR 
- -t 15.009488615 -s 0 -d -1 -p DSR -e 32 -c 2 -a 0 -i 1 -k RTR
h -t 15.009488615 -s 0 -d -1 -p DSR -e 32 -c 2 -a 0 -i 1 -k RTR
+ -t 15.012009942 -s 11 -d 7 -p DSR -e 44 -c 2 -a 0 -i 6 -k RTR 
- -t 15.012009942 -s 11 -d 7 -p DSR -e 44 -c 2 -a 0 -i 6 -k RTR
h -t 15.012009942 -s 11 -d 7 -p DSR -e 44 -c 2 -a 0 -i 6 -k RTR
+ -t 15.013996178 -s 7 -d 11 -p cbr -e 548 -c 2 -a 0 -i 4 -k RTR 
- -t 15.013996178 -s 7 -d 11 -p cbr -e 548 -c 2 -a 0 -i 4 -k RTR
h -t 15.013996178 -s 7 -d 11 -p cbr -e 548 -c 2 -a 0 -i 4 -k RTR
r -t 15.020058414 -s 11 -d 11 -p cbr -e 512 -c 2 -a 0 -i 4 -k AGT
+ -t 15.039992650 -s 3 -d -1 -p DSR -e 32 -c 2 -a 0 -i 9 -k RTR 
- -t 15.039992650 -s 3 -d -1 -p DSR -e 32 -c 2 -a 0 -i 9 -k RTR
h -t 15.039992650 -s 3 -d -1 -p DSR -e 32 -c 2 -a 0 -i 9 -k RTR
+ -t 15.041488543 -s 4 -d -1 -p DSR -e 48 -c 2 -a 0 -i 9 -k RTR 
- -t 15.041488543 -s 4 -d -1 -p DSR -e 48 -c 2 -a 0 -i 9 -k RTR
h -t 15.041488543 -s 4 -d -1 -p DSR -e 48 -c 2 -a 0 -i 9 -k RTR
+ -t 15.044933186 -s 10 -d -1 -p DSR -e 68 -c 2 -a 0 -i 9 -k RTR 
- -t 15.044933186 -s 10 -d -1 -p DSR -e 68 -c 2 -a 0 -i 9 -k RTR
h -t 15.044933186 -s 10 -d -1 -p DSR -e 68 -c 2 -a 0 -i 9 -k RTR
+ -t 15.045202712 -s 7 -d -1 -p DSR -e 48 -c 2 -a 0 -i 9 -k RTR 
- -t 15.045202712 -s 7 -d -1 -p DSR -e 48 -c 2 -a 0 -i 9 -k RTR
h -t 15.045202712 -s 7 -d -1 -p DSR -e 48 -c 2 -a 0 -i 9 -k RTR
+ -t 15.045411149 -s 0 -d -1 -p DSR -e 32 -c 2 -a 0 -i 8 -k RTR 
- -t 15.045411149 -s 0 -d -1 -p DSR -e 32 -c 2 -a 0 -i 8 -k RTR
h -t 15.045411149 -s 0 -d -1 -p DSR -e 32 -c 2 -a 0 -i 8 -k RTR
+ -t 15.045593626 -s 9 -d -1 -p DSR -e 48 -c 2 -a 0 -i 9 -k RTR 
- -t 15.045593626 -s 9 -d -1 -p DSR -e 48 -c 2 -a 0 -i 9 -k RTR
h -t 15.045593626 -s 9 -d -1 -p DSR -e 48 -c 2 -a 0 -i 9 -k RTR
+ -t 15.046123494 -s 1 -d -1 -p DSR -e 48 -c 2 -a 0 -i 9 -k RTR 
- -t 15.046123494 -s 1 -d -1 -p DSR -e 48 -c 2 -a 0 -i 9 -k RTR
h -t 15.046123494 -s 1 -d -1 -p DSR -e 48 -c 2 -a 0 -i 9 -k RTR
+ -t 15.046149563 -s 18 -d 10 -p DSR -e 60 -c 2 -a 0 -i 10 -k RTR 
- -t 15.046149563 -s 18 -d 10 -p DSR -e 60 -c 2 -a 0 -i 10 -k RTR
h -t 15.046149563 -s 18 -d 10 -p DSR -e 60 -c 2 -a 0 -i 10 -k RTR
+ -t 15.048932266 -s 2 -d -1 -p DSR -e 68 -c 2 -a 0 -i 9 -k RTR 
- -t 15.048932266 -s 2 -d -1 -p DSR -e 68 -c 2 -a 0 -i 9 -k RTR
h -t 15.048932266 -s 2 -d -1 -p DSR -e 68 -c 2 -a 0 -i 9 -k RTR
+ -t 15.049608646 -s 0 -d -1 -p DSR -e 48 -c 2 -a 0 -i 9 -k RTR 
- -t 15.049608646 -s 0 -d -1 -p DSR -e 48 -c 2 -a 0 -i 9 -k RTR
h -t 15.049608646 -s 0 -d -1 -p DSR -e 48 -c 2 -a 0 -i 9 -k RTR
+ -t 15.049962558 -s 16 -d -1 -p DSR -e 92 -c 2 -a 0 -i 9 -k RTR 
- -t 15.049962558 -s 16 -d -1 -p DSR -e 92 -c 2 -a 0 -i 9 -k RTR
h -t 15.049962558 -s 16 -d -1 -p DSR -e 92 -c 2 -a 0 -i 9 -k RTR
+ -t 15.050362160 -s 11 -d -1 -p DSR -e 92 -c 2 -a 0 -i 9 -k RTR 
- -t 15.050362160 -s 11 -d -1 -p DSR -e 92 -c 2 -a 0 -i 9 -k RTR
h -t 15.050362160 -s 11 -d -1 -p DSR -e 92 -c 2 -a 0 -i 9 -k RTR
+ -t 15.050944271 -s 6 -d -1 -p DSR -e 48 -c 2 -a 0 -i 9 -k RTR 
- -t 15.050944271 -s 6 -d -1 -p DSR -e 48 -c 2 -a 0 -i 9 -k RTR
h -t 15.050944271 -s 6 -d -1 -p DSR -e 48 -c 2 -a 0 -i 9 -k RTR
+ -t 15.051084158 -s 14 -d -1 -p DSR -e 92 -c 2 -a 0 -i 9 -k RTR 
- -t 15.051084158 -s 14 -d -1 -p DSR -e 92 -c 2 -a 0 -i 9 -k RTR
h -t 15.051084158 -s 14 -d -1 -p DSR -e 92 -c 2 -a 0 -i 9 -k RTR
+ -t 15.051351122 -s 13 -d -1 -p DSR -e 92 -c 2 -a 0 -i 9 -k RTR 
- -t 15.051351122 -s 13 -d -1 -p DSR -e 92 -c 2 -a 0 -i 9 -k RTR
h -t 15.051351122 -s 13 -d -1 -p DSR -e 92 -c 2 -a 0 -i 9 -k RTR
+ -t 15.051672908 -s 19 -d -1 -p DSR -e 92 -c 2 -a 0 -i 9 -k RTR 
- -t 15.051672908 -s 19 -d -1 -p DSR -e 92 -c 2 -a 0 -i 9 -k RTR
h -t 15.051672908 -s 19 -d -1 -p DSR -e 92 -c 2 -a 0 -i 9 -k RTR
+ -t 15.051978284 -s 5 -d -1 -p DSR -e 68 -c 2 -a 0 -i 9 -k RTR 
- -t 15.051978284 -s 5 -d -1 -p DSR -e 68 -c 2 -a 0 -i 9 -k RTR
h -t 15.051978284 -s 5 -d -1 -p DSR -e 68 -c 2 -a 0 -i 9 -k RTR
+ -t 15.052067786 -s 0 -d -1 -p cbr -e 512 -c 2 -a 0 -i 11 -k AGT 
- -t 15.052067786 -s 0 -d -1 -p cbr -e 512 -c 2 -a 0 -i 11 -k AGT
h -t 15.052067786 -s 0 -d -1 -p cbr -e 512 -c 2 -a 0 -i 11 -k AGT
+ -t 15.052071861 -s 8 -d -1 -p DSR -e 68 -c 2 -a 0 -i 9 -k RTR 
- -t 15.052071861 -s 8 -d -1 -p DSR -e 68 -c 2 -a 0 -i 9 -k RTR
h -t 15.052071861 -s 8 -d -1 -p DSR -e 68 -c 2 -a 0 -i 9 -k RTR
+ -t 15.052978203 -s 15 -d -1 -p DSR -e 68 -c 2 -a 0 -i 9 -k RTR 
- -t 15.052978203 -s 15 -d -1 -p DSR -e 68 -c 2 -a 0 -i 9 -k RTR
h -t 15.052978203 -s 15 -d -1 -p DSR -e 68 -c 2 -a 0 -i 9 -k RTR
+ -t 15.054038667 -s 17 -d 13 -p DSR -e 72 -c 2 -a 0 -i 14 -k RTR 
- -t 15.054038667 -s 17 -d 13 -p DSR -e 72 -c 2 -a 0 -i 14 -k RTR
h -t 15.054038667 -s 17 -d 13 -p DSR -e 72 -c 2 -a 0 -i 14 -k RTR
+ -t 15.054684358 -s 12 -d -1 -p DSR -e 92 -c 2 -a 0 -i 9 -k RTR 
- -t 15.054684358 -s 12 -d -1 -p DSR -e 92 -c 2 -a 0 -i 9 -k RTR
h -t 15.054684358 -s 12 -d -1 -p DSR -e 92 -c 2 -a 0 -i 9 -k RTR
+ -t 15.057281570 -s 13 -d 10 -p DSR -e 72 -c 2 -a 0 -i 14 -k RTR 
- -t 15.057281570 -s 13 -d 10 -p DSR -e 72 -c 2 -a 0 -i 14 -k RTR
h -t 15.057281570 -s 13 -d 10 -p DSR -e 72 -c 2 -a 0 -i 14 -k RTR
+ -t 15.058488166 -s 18 -d 11 -p DSR -e 68 -c 2 -a 0 -i 15 -k RTR 
- -t 15.058488166 -s 18 -d 11 -p DSR -e 68 -c 2 -a 0 -i 15 -k RTR
h -t 15.058488166 -s 18 -d 11 -p DSR -e 68 -c 2 -a 0 -i 15 -k RTR
+ -t 15.059313365 -s 3 -d -1 -p cbr -e 512 -c 2 -a 0 -i 17 -k AGT 
- -t 15.059313365 -s 3 -d -1 -p cbr -e 512 -c 2 -a 0 -i 17 -k AGT
h -t 15.059313365 -s 3 -d -1 -p cbr -e 512 -c 2 -a 0 -i 17 -k AGT
+ -t 15.060202506 -s 18 -d 14 -p DSR -e 68 -c 2 -a 0 -i 16 -k RTR 
- -t 15.060202506 -s 18 -d 14 -p DSR -e 68 -c 2 -a 0 -i 16 -k RTR
h -t 15.060202506 -s 18 -d 14 -p DSR -e 68 -c 2 -a 0 -i 16 -k RTR
+ -t 15.063683999 -s 18 -d 13 -p DSR -e 68 -c 2 -a 0 -i 13 -k RTR 
- -t 15.063683999 -s 18 -d 13 -p DSR -e 68 -c 2 -a 0 -i 13 -k RTR
h -t 15.063683999 -s 18 -d 13 -p DSR -e 68 -c 2 -a 0 -i 13 -k RTR
+ -t 15.064053806 -s 10 -d 4 -p DSR -e 60 -c 2 -a 0 -i 10 -k RTR 
- -t 15.064053806 -s 10 -d 4 -p DSR -e 60 -c 2 -a 0 -i 10 -k RTR
h -t 15.064053806 -s 10 -d 4 -p DSR -e 60 -c 2 -a 0 -i 10 -k RTR
+ -t 15.066107139 -s 10 -d 4 -p DSR -e 72 -c 2 -a 0 -i 14 -k RTR 
- -t 15.066107139 -s 10 -d 4 -p DSR -e 72 -c 2 -a 0 -i 14 -k RTR
h -t 15.066107139 -s 10 -d 4 -p DSR -e 72 -c 2 -a 0 -i 14 -k RTR
+ -t 15.070910885 -s 4 -d 3 -p DSR -e 60 -c 2 -a 0 -i 10 -k RTR 
- -t 15.070910885 -s 4 -d 3 -p DSR -e 60 -c 2 -a 0 -i 10 -k RTR
h -t 15.070910885 -s 4 -d 3 -p DSR -e 60 -c 2 -a 0 -i 10 -k RTR
+ -t 15.071706238 -s 18 -d 19 -p DSR -e 68 -c 2 -a 0 -i 19 -k RTR 
- -t 15.071706238 -s 18 -d 19 -p DSR -e 68 -c 2 -a 0 -i 19 -k RTR
h -t 15.071706238 -s 18 -d 19 -p DSR -e 68 -c 2 -a 0 -i 19 -k RTR
+ -t 15.075216495 -s 18 -d 16 -p DSR -e 68 -c 2 -a 0 -i 20 -k RTR 
- -t 15.075216495 -s 18 -d 16 -p DSR -e 68 -c 2 -a 0 -i 20 -k RTR
h -t 15.075216495 -s 18 -d 16 -p DSR -e 68 -c 2 -a 0 -i 20 -k RTR
+ -t 15.075419042 -s 4 -d 3 -p DSR -e 72 -c 2 -a 0 -i 14 -k RTR 
- -t 15.075419042 -s 4 -d 3 -p DSR -e 72 -c 2 -a 0 -i 14 -k RTR
h -t 15.075419042 -s 4 -d 3 -p DSR -e 72 -c 2 -a 0 -i 14 -k RTR
+ -t 15.077517042 -s 3 -d 4 -p cbr -e 556 -c 2 -a 0 -i 2 -k RTR 
- -t 15.077517042 -s 3 -d 4 -p cbr -e 556 -c 2 -a 0 -i 2 -k RTR
h -t 15.077517042 -s 3 -d 4 -p cbr -e 556 -c 2 -a 0 -i 2 -k RTR
+ -t 15.083523042 -s 4 -d 10 -p cbr -e 556 -c 2 -a 0 -i 2 -k RTR 
- -t 15.083523042 -s 4 -d 10 -p cbr -e 556 -c 2 -a 0 -i 2 -k RTR
h -t 15.083523042 -s 4 -d 10 -p cbr -e 556 -c 2 -a 0 -i 2 -k RTR
+ -t 15.085406921 -s 0 -d 3 -p cbr -e 560 -c 2 -a 0 -i 0 -k RTR 
- -t 15.085406921 -s 0 -d 3 -p cbr -e 560 -c 2 -a 0 -i 0 -k RTR
h -t 15.085406921 -s 0 -d 3 -p cbr -e 560 -c 2 -a 0 -i 0 -k RTR
+ -t 15.085406921 -s 0 -d 3 -p cbr -e 560 -c 2 -a 0 -i 11 -k RTR 
- -t 15.085406921 -s 0 -d 3 -p cbr -e 560 -c 2 -a 0 -i 11 -k RTR
h -t 15.085406921 -s 0 -d 3 -p cbr -e 560 -c 2 -a 0 -i 11 -k RTR
+ -t 15.085989831 -s 13 -d 10 -p DSR -e 68 -c 2 -a 0 -i 13 -k RTR 
- -t 15.085989831 -s 13 -d 10 -p DSR -e 68 -c 2 -a 0 -i 13 -k RTR
h -t 15.085989831 -s 13 -d 10 -p DSR -e 68 -c 2 -a 0 -i 13 -k RTR
+ -t 15.095333400 -s 3 -d 4 -p cbr -e 560 -c 2 -a 0 -i 0 -k RTR 
- -t 15.095333400 -s 3 -d 4 -p cbr -e 560 -c 2 -a 0 -i 0 -k RTR
h -t 15.095333400 -s 3 -d 4 -p cbr -e 560 -c 2 -a 0 -i 0 -k RTR
+ -t 15.101406146 -s 4 -d 0 -p DSR -e 52 -c 2 -a 0 -i 23 -k RTR 
- -t 15.101406146 -s 4 -d 0 -p DSR -e 52 -c 2 -a 0 -i 23 -k RTR
h -t 15.101406146 -s 4 -d 0 -p DSR -e 52 -c 2 -a 0 -i 23 -k RTR
+ -t 15.101430733 -s 3 -d 4 -p cbr -e 560 -c 2 -a 0 -i 11 -k RTR 
- -t 15.101430733 -s 3 -d 4 -p cbr -e 560 -c 2 -a 0 -i 11 -k RTR
h -t 15.101430733 -s 3 -d 4 -p cbr -e 560 -c 2 -a 0 -i 11 -k RTR
+ -t 15.107517042 -s 3 -d 4 -p cbr -e 556 -c 2 -a 0 -i 17 -k RTR 
- -t 15.107517042 -s 3 -d 4 -p cbr -e 556 -c 2 -a 0 -i 17 -k RTR
h -t 15.107517042 -s 3 -d 4 -p cbr -e 556 -c 2 -a 0 -i 17 -k RTR
+ -t 15.107548733 -s 4 -d 10 -p cbr -e 560 -c 2 -a 0 -i 0 -k RTR 
- -t 15.107548733 -s 4 -d 10 -p cbr -e 560 -c 2 -a 0 -i 0 -k RTR
h -t 15.107548733 -s 4 -d 10 -p cbr -e 560 -c 2 -a 0 -i 0 -k RTR
+ -t 15.113554733 -s 10 -d 18 -p cbr -e 556 -c 2 -a 0 -i 2 -k RTR 
- -t 15.113554733 -s 10 -d 18 -p cbr -e 556 -c 2 -a 0 -i 2 -k RTR
h -t 15.113554733 -s 10 -d 18 -p cbr -e 556 -c 2 -a 0 -i 2 -k RTR
+ -t 15.115666067 -s 10 -d 4 -p DSR -e 68 -c 2 -a 0 -i 13 -k RTR 
- -t 15.115666067 -s 10 -d 4 -p DSR -e 68 -c 2 -a 0 -i 13 -k RTR
h -t 15.115666067 -s 10 -d 4 -p DSR -e 68 -c 2 -a 0 -i 13 -k RTR
r -t 15.121612303 -s 18 -d 18 -p cbr -e 512 -c 2 -a 0 -i 2 -k AGT
+ -t 15.123795048 -s 4 -d 3 -p DSR -e 68 -c 2 -a 0 -i 13 -k RTR 
- -t 15.123795048 -s 4 -d 3 -p DSR -e 68 -c 2 -a 0 -i 13 -k RTR
h -t 15.123795048 -s 4 -d 3 -p DSR -e 68 -c 2 -a 0 -i 13 -k RTR
+ -t 15.129963324 -s 4 -d 10 -p cbr -e 560 -c 2 -a 0 -i 11 -k RTR 
- -t 15.129963324 -s 4 -d 10 -p cbr -e 560 -c 2 -a 0 -i 11 -k RTR
h -t 15.129963324 -s 4 -d 10 -p cbr -e 560 -c 2 -a 0 -i 11 -k RTR
+ -t 15.136316010 -s 7 -d -1 -p cbr -e 512 -c 2 -a 0 -i 24 -k AGT 
- -t 15.136316010 -s 7 -d -1 -p cbr -e 512 -c 2 -a 0 -i 24 -k AGT
h -t 15.136316010 -s 7 -d -1 -p cbr -e 512 -c 2 -a 0 -i 24 -k AGT
+ -t 15.136316010 -s 7 -d 11 -p cbr -e 548 -c 2 -a 0 -i 24 -k RTR 
- -t 15.136316010 -s 7 -d 11 -p cbr -e 548 -c 2 -a 0 -i 24 -k RTR
h -t 15.136316010 -s 7 -d 11 -p cbr -e 548 -c 2 -a 0 -i 24 -k RTR
+ -t 15.140206306 -s 4 -d 10 -p cbr -e 556 -c 2 -a 0 -i 17 -k RTR 
- -t 15.140206306 -s 4 -d 10 -p cbr -e 556 -c 2 -a 0 -i 17 -k RTR
h -t 15.140206306 -s 4 -d 10 -p cbr -e 556 -c 2 -a 0 -i 17 -k RTR
+ -t 15.146464306 -s 10 -d 18 -p cbr -e 560 -c 2 -a 0 -i 0 -k RTR 
- -t 15.146464306 -s 10 -d 18 -p cbr -e 560 -c 2 -a 0 -i 0 -k RTR
h -t 15.146464306 -s 10 -d 18 -p cbr -e 560 -c 2 -a 0 -i 0 -k RTR
r -t 15.152506875 -s 11 -d 11 -p cbr -e 512 -c 2 -a 0 -i 24 -k AGT
r -t 15.158485778 -s 18 -d 18 -p cbr -e 512 -c 2 -a 0 -i 0 -k AGT
+ -t 15.164949152 -s 10 -d 18 -p cbr -e 560 -c 2 -a 0 -i 11 -k RTR 
- -t 15.164949152 -s 10 -d 18 -p cbr -e 560 -c 2 -a 0 -i 11 -k RTR
h -t 15.164949152 -s 10 -d 18 -p cbr -e 560 -c 2 -a 0 -i 11 -k RTR
+ -t 15.171115819 -s 10 -d 18 -p cbr -e 556 -c 2 -a 0 -i 17 -k RTR 
- -t 15.171115819 -s 10 -d 18 -p cbr -e 556 -c 2 -a 0 -i 17 -k RTR
h -t 15.171115819 -s 10 -d 18 -p cbr -e 556 -c 2 -a 0 -i 17 -k RTR
+ -t 15.172775300 -s 0 -d -1 -p cbr -e 512 -c 2 -a 0 -i 25 -k AGT 
- -t 15.172775300 -s 0 -d -1 -p cbr -e 512 -c 2 -a 0 -i 25 -k AGT
h -t 15.172775300 -s 0 -d -1 -p cbr -e 512 -c 2 -a 0 -i 25 -k AGT
+ -t 15.172775300 -s 0 -d 4 -p cbr -e 556 -c 2 -a 0 -i 25 -k RTR 
- -t 15.172775300 -s 0 -d 4 -p cbr -e 556 -c 2 -a 0 -i 25 -k RTR
h -t 15.172775300 -s 0 -d 4 -p cbr -e 556 -c 2 -a 0 -i 25 -k RTR
r -t 15.177134055 -s 18 -d 18 -p cbr -e 512 -c 2 -a 0 -i 11 -k AGT
r -t 15.183161036 -s 18 -d 18 -p cbr -e 512 -c 2 -a 0 -i 17 -k AGT
+ -t 15.189357729 -s 4 -d 10 -p cbr -e 556 -c 2 -a 0 -i 25 -k RTR 
- -t 15.189357729 -s 4 -d 10 -p cbr -e 556 -c 2 -a 0 -i 25 -k RTR
h -t 15.189357729 -s 4 -d 10 -p cbr -e 556 -c 2 -a 0 -i 25 -k RTR
+ -t 15.195503729 -s 10 -d 18 -p cbr -e 556 -c 2 -a 0 -i 25 -k RTR 
- -t 15.195503729 -s 10 -d 18 -p cbr -e 556 -c 2 -a 0 -i 25 -k RTR
h -t 15.195503729 -s 10 -d 18 -p cbr -e 556 -c 2 -a 0 -i 25 -k RTR
+ -t 15.196986691 -s 7 -d -1 -p cbr -e 512 -c 2 -a 0 -i 26 -k AGT 
- -t 15.196986691 -s 7 -d -1 -p cbr -e 512 -c 2 -a 0 -i 26 -k AGT
h -t 15.196986691 -s 7 -d -1 -p cbr -e 512 -c 2 -a 0 -i 26 -k AGT
+ -t 15.196986691 -s 7 -d 11 -p cbr -e 548 -c 2 -a 0 -i 26 -k RTR 
- -t 15.196986691 -s 7 -d 11 -p cbr -e 548 -c 2 -a 0 -i 26 -k RTR
h -t 15.196986691 -s 7 -d 11 -p cbr -e 548 -c 2 -a 0 -i 26 -k RTR
+ -t 15.198305092 -s 3 -d -1 -p cbr -e 512 -c 2 -a 0 -i 27 -k AGT 
- -t 15.198305092 -s 3 -d -1 -p cbr -e 512 -c 2 -a 0 -i 27 -k AGT
h -t 15.198305092 -s 3 -d -1 -p cbr -e 512 -c 2 -a 0 -i 27 -k AGT
+ -t 15.198305092 -s 3 -d 4 -p cbr -e 556 -c 2 -a 0 -i 27 -k RTR 
- -t 15.198305092 -s 3 -d 4 -p cbr -e 556 -c 2 -a 0 -i 27 -k RTR
h -t 15.198305092 -s 3 -d 4 -p cbr -e 556 -c 2 -a 0 -i 27 -k RTR
r -t 15.201869965 -s 18 -d 18 -p cbr -e 512 -c 2 -a 0 -i 25 -k AGT
r -t 15.208137255 -s 11 -d 11 -p cbr -e 512 -c 2 -a 0 -i 26 -k AGT
+ -t 15.214628746 -s 4 -d 10 -p cbr -e 556 -c 2 -a 0 -i 27 -k RTR 
- -t 15.214628746 -s 4 -d 10 -p cbr -e 556 -c 2 -a 0 -i 27 -k RTR
h -t 15.214628746 -s 4 -d 10 -p cbr -e 556 -c 2 -a 0 -i 27 -k RTR
+ -t 15.220934746 -s 10 -d 18 -p cbr -e 556 -c 2 -a 0 -i 27 -k RTR 
- -t 15.220934746 -s 10 -d 18 -p cbr -e 556 -c 2 -a 0 -i 27 -k RTR
h -t 15.220934746 -s 10 -d 18 -p cbr -e 556 -c 2 -a 0 -i 27 -k RTR
r -t 15.227040982 -s 18 -d 18 -p cbr -e 512 -c 2 -a 0 -i 27 -k AGT
+ -t 15.242981982 -s 16 -d 10 -p DSR -e 68 -c 2 -a 0 -i 20 -k RTR 
- -t 15.242981982 -s 16 -d 10 -p DSR -e 68 -c 2 -a 0 -i 20 -k RTR
h -t 15.242981982 -s 16 -d 10 -p DSR -e 68 -c 2 -a 0 -i 20 -k RTR
+ -t 15.245144315 -s 19 -d 10 -p DSR -e 68 -c 2 -a 0 -i 19 -k RTR 
- -t 15.245144315 -s 19 -d 10 -p DSR -e 68 -c 2 -a 0 -i 19 -k RTR
h -t 15.245144315 -s 19 -d 10 -p DSR -e 68 -c 2 -a 0 -i 19 -k RTR
+ -t 15.247166649 -s 10 -d 4 -p DSR -e 68 -c 2 -a 0 -i 20 -k RTR 
- -t 15.247166649 -s 10 -d 4 -p DSR -e 68 -c 2 -a 0 -i 20 -k RTR
h -t 15.247166649 -s 10 -d 4 -p DSR -e 68 -c 2 -a 0 -i 20 -k RTR
+ -t 15.249269630 -s 10 -d 4 -p DSR -e 68 -c 2 -a 0 -i 19 -k RTR 
- -t 15.249269630 -s 10 -d 4 -p DSR -e 68 -c 2 -a 0 -i 19 -k RTR
h -t 15.249269630 -s 10 -d 4 -p DSR -e 68 -c 2 -a 0 -i 19 -k RTR
+ -t 15.251291790 -s 14 -d 10 -p DSR -e 68 -c 2 -a 0 -i 16 -k RTR 
- -t 15.251291790 -s 14 -d 10 -p DSR -e 68 -c 2 -a 0 -i 16 -k RTR
h -t 15.251291790 -s 14 -d 10 -p DSR -e 68 -c 2 -a 0 -i 16 -k RTR
+ -t 15.251590572 -s 3 -d -1 -p cbr -e 512 -c 2 -a 0 -i 28 -k AGT 
- -t 15.251590572 -s 3 -d -1 -p cbr -e 512 -c 2 -a 0 -i 28 -k AGT
h -t 15.251590572 -s 3 -d -1 -p cbr -e 512 -c 2 -a 0 -i 28 -k AGT
+ -t 15.251590572 -s 3 -d 4 -p cbr -e 532 -c 2 -a 0 -i 28 -k RTR 
- -t 15.251590572 -s 3 -d 4 -p cbr -e 532 -c 2 -a 0 -i 28 -k RTR
h -t 15.251590572 -s 3 -d 4 -p cbr -e 532 -c 2 -a 0 -i 28 -k RTR
+ -t 15.253414026 -s 10 -d 4 -p DSR -e 68 -c 2 -a 0 -i 16 -k RTR 
- -t 15.253414026 -s 10 -d 4 -p DSR -e 68 -c 2 -a 0 -i 16 -k RTR
h -t 15.253414026 -s 10 -d 4 -p DSR -e 68 -c 2 -a 0 -i 16 -k RTR
+ -t 15.255517007 -s 11 -d 10 -p DSR -e 68 -c 2 -a 0 -i 15 -k RTR 
- -t 15.255517007 -s 11 -d 10 -p DSR -e 68 -c 2 -a 0 -i 15 -k RTR
h -t 15.255517007 -s 11 -d 10 -p DSR -e 68 -c 2 -a 0 -i 15 -k RTR
+ -t 15.257539674 -s 4 -d 3 -p DSR -e 68 -c 2 -a 0 -i 20 -k RTR 
- -t 15.257539674 -s 4 -d 3 -p DSR -e 68 -c 2 -a 0 -i 20 -k RTR
h -t 15.257539674 -s 4 -d 3 -p DSR -e 68 -c 2 -a 0 -i 20 -k RTR
+ -t 15.263323950 -s 4 -d 10 -p cbr -e 532 -c 2 -a 0 -i 28 -k RTR 
- -t 15.263323950 -s 4 -d 10 -p cbr -e 532 -c 2 -a 0 -i 28 -k RTR
h -t 15.263323950 -s 4 -d 10 -p cbr -e 532 -c 2 -a 0 -i 28 -k RTR
+ -t 15.265416226 -s 4 -d 3 -p DSR -e 68 -c 2 -a 0 -i 16 -k RTR 
- -t 15.265416226 -s 4 -d 3 -p DSR -e 68 -c 2 -a 0 -i 16 -k RTR
h -t 15.265416226 -s 4 -d 3 -p DSR -e 68 -c 2 -a 0 -i 16 -k RTR
+ -t 15.270025169 -s 4 -d 3 -p DSR -e 68 -c 2 -a 0 -i 19 -k RTR 
- -t 15.270025169 -s 4 -d 3 -p DSR -e 68 -c 2 -a 0 -i 19 -k RTR
h -t 15.270025169 -s 4 -d 3 -p DSR -e 68 -c 2 -a 0 -i 19 -k RTR
+ -t 15.272266810 -s 0 -d -1 -p cbr -e 512 -c 2 -a 0 -i 29 -k AGT 
- -t 15.272266810 -s 0 -d -1 -p cbr -e 512 -c 2 -a 0 -i 29 -k AGT
h -t 15.272266810 -s 0 -d -1 -p cbr -e 512 -c 2 -a 0 -i 29 -k AGT
+ -t 15.272266810 -s 0 -d 4 -p cbr -e 556 -c 2 -a 0 -i 29 -k RTR 
- -t 15.272266810 -s 0 -d 4 -p cbr -e 556 -c 2 -a 0 -i 29 -k RTR
h -t 15.272266810 -s 0 -d 4 -p cbr -e 556 -c 2 -a 0 -i 29 -k RTR
+ -t 15.276414662 -s 7 -d -1 -p cbr -e 512 -c 2 -a 0 -i 30 -k AGT 
- -t 15.276414662 -s 7 -d -1 -p cbr -e 512 -c 2 -a 0 -i 30 -k AGT
h -t 15.276414662 -s 7 -d -1 -p cbr -e 512 -c 2 -a 0 -i 30 -k AGT
+ -t 15.276414662 -s 7 -d 11 -p cbr -e 532 -c 2 -a 0 -i 30 -k RTR 
- -t 15.276414662 -s 7 -d 11 -p cbr -e 532 -c 2 -a 0 -i 30 -k RTR
h -t 15.276414662 -s 7 -d 11 -p cbr -e 532 -c 2 -a 0 -i 30 -k RTR
+ -t 15.280084502 -s 10 -d 18 -p cbr -e 532 -c 2 -a 0 -i 28 -k RTR 
- -t 15.280084502 -s 10 -d 18 -p cbr -e 532 -c 2 -a 0 -i 28 -k RTR
h -t 15.280084502 -s 10 -d 18 -p cbr -e 532 -c 2 -a 0 -i 28 -k RTR
r -t 15.285898738 -s 18 -d 18 -p cbr -e 512 -c 2 -a 0 -i 28 -k AGT
+ -t 15.292075431 -s 4 -d 10 -p cbr -e 556 -c 2 -a 0 -i 29 -k RTR 
- -t 15.292075431 -s 4 -d 10 -p cbr -e 556 -c 2 -a 0 -i 29 -k RTR
h -t 15.292075431 -s 4 -d 10 -p cbr -e 556 -c 2 -a 0 -i 29 -k RTR
r -t 15.297899864 -s 11 -d 11 -p cbr -e 512 -c 2 -a 0 -i 30 -k AGT
+ -t 15.300081864 -s 10 -d 4 -p DSR -e 68 -c 2 -a 0 -i 15 -k RTR 
- -t 15.300081864 -s 10 -d 4 -p DSR -e 68 -c 2 -a 0 -i 15 -k RTR
h -t 15.300081864 -s 10 -d 4 -p DSR -e 68 -c 2 -a 0 -i 15 -k RTR
+ -t 15.302203864 -s 4 -d 3 -p DSR -e 68 -c 2 -a 0 -i 15 -k RTR 
- -t 15.302203864 -s 4 -d 3 -p DSR -e 68 -c 2 -a 0 -i 15 -k RTR
h -t 15.302203864 -s 4 -d 3 -p DSR -e 68 -c 2 -a 0 -i 15 -k RTR
+ -t 15.308449864 -s 10 -d 18 -p cbr -e 556 -c 2 -a 0 -i 29 -k RTR 
- -t 15.308449864 -s 10 -d 18 -p cbr -e 556 -c 2 -a 0 -i 29 -k RTR
h -t 15.308449864 -s 10 -d 18 -p cbr -e 556 -c 2 -a 0 -i 29 -k RTR
r -t 15.314616101 -s 18 -d 18 -p cbr -e 512 -c 2 -a 0 -i 29 -k AGT
+ -t 15.364644725 -s 3 -d -1 -p cbr -e 512 -c 2 -a 0 -i 31 -k AGT 
- -t 15.364644725 -s 3 -d -1 -p cbr -e 512 -c 2 -a 0 -i 31 -k AGT
h -t 15.364644725 -s 3 -d -1 -p cbr -e 512 -c 2 -a 0 -i 31 -k AGT
+ -t 15.364644725 -s 3 -d 4 -p cbr -e 532 -c 2 -a 0 -i 31 -k RTR 
- -t 15.364644725 -s 3 -d 4 -p cbr -e 532 -c 2 -a 0 -i 31 -k RTR
h -t 15.364644725 -s 3 -d 4 -p cbr -e 532 -c 2 -a 0 -i 31 -k RTR
+ -t 15.370454725 -s 4 -d 10 -p cbr -e 532 -c 2 -a 0 -i 31 -k RTR 
- -t 15.370454725 -s 4 -d 10 -p cbr -e 532 -c 2 -a 0 -i 31 -k RTR
h -t 15.370454725 -s 4 -d 10 -p cbr -e 532 -c 2 -a 0 -i 31 -k RTR
+ -t 15.376248725 -s 10 -d 18 -p cbr -e 532 -c 2 -a 0 -i 31 -k RTR 
- -t 15.376248725 -s 10 -d 18 -p cbr -e 532 -c 2 -a 0 -i 31 -k RTR
h -t 15.376248725 -s 10 -d 18 -p cbr -e 532 -c 2 -a 0 -i 31 -k RTR
r -t 15.382382961 -s 18 -d 18 -p cbr -e 512 -c 2 -a 0 -i 31 -k AGT
+ -t 15.389530283 -s 7 -d -1 -p cbr -e 512 -c 2 -a 0 -i 32 -k AGT 
- -t 15.389530283 -s 7 -d -1 -p cbr -e 512 -c 2 -a 0 -i 32 -k AGT
h -t 15.389530283 -s 7 -d -1 -p cbr -e 512 -c 2 -a 0 -i 32 -k AGT
+ -t 15.389530283 -s 7 -d 11 -p cbr -e 532 -c 2 -a 0 -i 32 -k RTR 
- -t 15.389530283 -s 7 -d 11 -p cbr -e 532 -c 2 -a 0 -i 32 -k RTR
h -t 15.389530283 -s 7 -d 11 -p cbr -e 532 -c 2 -a 0 -i 32 -k RTR
r -t 15.395340519 -s 11 -d 11 -p cbr -e 512 -c 2 -a 0 -i 32 -k AGT
+ -t 15.397710467 -s 0 -d -1 -p cbr -e 512 -c 2 -a 0 -i 33 -k AGT 
- -t 15.397710467 -s 0 -d -1 -p cbr -e 512 -c 2 -a 0 -i 33 -k AGT
h -t 15.397710467 -s 0 -d -1 -p cbr -e 512 -c 2 -a 0 -i 33 -k AGT
+ -t 15.397710467 -s 0 -d 4 -p cbr -e 556 -c 2 -a 0 -i 33 -k RTR 
- -t 15.397710467 -s 0 -d 4 -p cbr -e 556 -c 2 -a 0 -i 33 -k RTR
h -t 15.397710467 -s 0 -d 4 -p cbr -e 556 -c 2 -a 0 -i 33 -k RTR
+ -t 15.403592703 -s 4 -d 10 -p cbr -e 556 -c 2 -a 0 -i 33 -k RTR 
- -t 15.403592703 -s 4 -d 10 -p cbr -e 556 -c 2 -a 0 -i 33 -k RTR
h -t 15.403592703 -s 4 -d 10 -p cbr -e 556 -c 2 -a 0 -i 33 -k RTR
+ -t 15.409658703 -s 10 -d 18 -p cbr -e 556 -c 2 -a 0 -i 33 -k RTR 
- -t 15.409658703 -s 10 -d 18 -p cbr -e 556 -c 2 -a 0 -i 33 -k RTR
h -t 15.409658703 -s 10 -d 18 -p cbr -e 556 -c 2 -a 0 -i 33 -k RTR
r -t 15.415724939 -s 18 -d 18 -p cbr -e 512 -c 2 -a 0 -i 33 -k AGT
+ -t 15.442094118 -s 7 -d -1 -p cbr -e 512 -c 2 -a 0 -i 34 -k AGT 
- -t 15.442094118 -s 7 -d -1 -p cbr -e 512 -c 2 -a 0 -i 34 -k AGT
h -t 15.442094118 -s 7 -d -1 -p cbr -e 512 -c 2 -a 0 -i 34 -k AGT
+ -t 15.442094118 -s 7 -d 11 -p cbr -e 532 -c 2 -a 0 -i 34 -k RTR 
- -t 15.442094118 -s 7 -d 11 -p cbr -e 532 -c 2 -a 0 -i 34 -k RTR
h -t 15.442094118 -s 7 -d 11 -p cbr -e 532 -c 2 -a 0 -i 34 -k RTR
r -t 15.447904354 -s 11 -d 11 -p cbr -e 512 -c 2 -a 0 -i 34 -k AGT
+ -t 15.479772317 -s 0 -d -1 -p cbr -e 512 -c 2 -a 0 -i 35 -k AGT 
- -t 15.479772317 -s 0 -d -1 -p cbr -e 512 -c 2 -a 0 -i 35 -k AGT
h -t 15.479772317 -s 0 -d -1 -p cbr -e 512 -c 2 -a 0 -i 35 -k AGT
+ -t 15.479772317 -s 0 -d 4 -p cbr -e 532 -c 2 -a 0 -i 35 -k RTR 
- -t 15.479772317 -s 0 -d 4 -p cbr -e 532 -c 2 -a 0 -i 35 -k RTR
h -t 15.479772317 -s 0 -d 4 -p cbr -e 532 -c 2 -a 0 -i 35 -k RTR
+ -t 15.485582553 -s 4 -d 10 -p cbr -e 532 -c 2 -a 0 -i 35 -k RTR 
- -t 15.485582553 -s 4 -d 10 -p cbr -e 532 -c 2 -a 0 -i 35 -k RTR
h -t 15.485582553 -s 4 -d 10 -p cbr -e 532 -c 2 -a 0 -i 35 -k RTR
+ -t 15.486454759 -s 3 -d -1 -p cbr -e 512 -c 2 -a 0 -i 36 -k AGT 
- -t 15.486454759 -s 3 -d -1 -p cbr -e 512 -c 2 -a 0 -i 36 -k AGT
h -t 15.486454759 -s 3 -d -1 -p cbr -e 512 -c 2 -a 0 -i 36 -k AGT
+ -t 15.486454759 -s 3 -d 4 -p cbr -e 532 -c 2 -a 0 -i 36 -k RTR 
- -t 15.486454759 -s 3 -d 4 -p cbr -e 532 -c 2 -a 0 -i 36 -k RTR
h -t 15.486454759 -s 3 -d 4 -p cbr -e 532 -c 2 -a 0 -i 36 -k RTR
+ -t 15.491696553 -s 10 -d 18 -p cbr -e 532 -c 2 -a 0 -i 35 -k RTR 
- -t 15.491696553 -s 10 -d 18 -p cbr -e 532 -c 2 -a 0 -i 35 -k RTR
h -t 15.491696553 -s 10 -d 18 -p cbr -e 532 -c 2 -a 0 -i 35 -k RTR
r -t 15.497470789 -s 18 -d 18 -p cbr -e 512 -c 2 -a 0 -i 35 -k AGT
+ -t 15.503910456 -s 4 -d 10 -p cbr -e 532 -c 2 -a 0 -i 36 -k RTR 
- -t 15.503910456 -s 4 -d 10 -p cbr -e 532 -c 2 -a 0 -i 36 -k RTR
h -t 15.503910456 -s 4 -d 10 -p cbr -e 532 -c 2 -a 0 -i 36 -k RTR
+ -t 15.510004456 -s 10 -d 18 -p cbr -e 532 -c 2 -a 0 -i 36 -k RTR 
- -t 15.510004456 -s 10 -d 18 -p cbr -e 532 -c 2 -a 0 -i 36 -k RTR
h -t 15.510004456 -s 10 -d 18 -p cbr -e 532 -c 2 -a 0 -i 36 -k RTR
r -t 15.515958692 -s 18 -d 18 -p cbr -e 512 -c 2 -a 0 -i 36 -k AGT
+ -t 15.524194890 -s 7 -d -1 -p cbr -e 512 -c 2 -a 0 -i 37 -k AGT 
- -t 15.524194890 -s 7 -d -1 -p cbr -e 512 -c 2 -a 0 -i 37 -k AGT
h -t 15.524194890 -s 7 -d -1 -p cbr -e 512 -c 2 -a 0 -i 37 -k AGT
+ -t 15.524194890 -s 7 -d 11 -p cbr -e 532 -c 2 -a 0 -i 37 -k RTR 
- -t 15.524194890 -s 7 -d 11 -p cbr -e 532 -c 2 -a 0 -i 37 -k RTR
h -t 15.524194890 -s 7 -d 11 -p cbr -e 532 -c 2 -a 0 -i 37 -k RTR
r -t 15.529845126 -s 11 -d 11 -p cbr -e 512 -c 2 -a 0 -i 37 -k AGT
+ -t 15.593175085 -s 3 -d -1 -p cbr -e 512 -c 2 -a 0 -i 38 -k AGT 
- -t 15.593175085 -s 3 -d -1 -p cbr -e 512 -c 2 -a 0 -i 38 -k AGT
h -t 15.593175085 -s 3 -d -1 -p cbr -e 512 -c 2 -a 0 -i 38 -k AGT
+ -t 15.593175085 -s 3 -d 4 -p cbr -e 532 -c 2 -a 0 -i 38 -k RTR 
- -t 15.593175085 -s 3 -d 4 -p cbr -e 532 -c 2 -a 0 -i 38 -k RTR
h -t 15.593175085 -s 3 -d 4 -p cbr -e 532 -c 2 -a 0 -i 38 -k RTR
+ -t 15.599145085 -s 4 -d 10 -p cbr -e 532 -c 2 -a 0 -i 38 -k RTR 
- -t 15.599145085 -s 4 -d 10 -p cbr -e 532 -c 2 -a 0 -i 38 -k RTR
h -t 15.599145085 -s 4 -d 10 -p cbr -e 532 -c 2 -a 0 -i 38 -k RTR
+ -t 15.605139085 -s 10 -d 18 -p cbr -e 532 -c 2 -a 0 -i 38 -k RTR 
- -t 15.605139085 -s 10 -d 18 -p cbr -e 532 -c 2 -a 0 -i 38 -k RTR
h -t 15.605139085 -s 10 -d 18 -p cbr -e 532 -c 2 -a 0 -i 38 -k RTR
+ -t 15.609295877 -s 0 -d -1 -p cbr -e 512 -c 2 -a 0 -i 39 -k AGT 
- -t 15.609295877 -s 0 -d -1 -p cbr -e 512 -c 2 -a 0 -i 39 -k AGT
h -t 15.609295877 -s 0 -d -1 -p cbr -e 512 -c 2 -a 0 -i 39 -k AGT
+ -t 15.609295877 -s 0 -d 4 -p cbr -e 532 -c 2 -a 0 -i 39 -k RTR 
- -t 15.609295877 -s 0 -d 4 -p cbr -e 532 -c 2 -a 0 -i 39 -k RTR
h -t 15.609295877 -s 0 -d 4 -p cbr -e 532 -c 2 -a 0 -i 39 -k RTR
r -t 15.611293321 -s 18 -d 18 -p cbr -e 512 -c 2 -a 0 -i 38 -k AGT
+ -t 15.617058014 -s 4 -d 10 -p cbr -e 532 -c 2 -a 0 -i 39 -k RTR 
- -t 15.617058014 -s 4 -d 10 -p cbr -e 532 -c 2 -a 0 -i 39 -k RTR
h -t 15.617058014 -s 4 -d 10 -p cbr -e 532 -c 2 -a 0 -i 39 -k RTR
+ -t 15.622852014 -s 10 -d 18 -p cbr -e 532 -c 2 -a 0 -i 39 -k RTR 
- -t 15.622852014 -s 10 -d 18 -p cbr -e 532 -c 2 -a 0 -i 39 -k RTR
h -t 15.622852014 -s 10 -d 18 -p cbr -e 532 -c 2 -a 0 -i 39 -k RTR
r -t 15.628826250 -s 18 -d 18 -p cbr -e 512 -c 2 -a 0 -i 39 -k AGT
+ -t 15.650868095 -s 7 -d -1 -p cbr -e 512 -c 2 -a 0 -i 40 -k AGT 
- -t 15.650868095 -s 7 -d -1 -p cbr -e 512 -c 2 -a 0 -i 40 -k AGT
h -t 15.650868095 -s 7 -d -1 -p cbr -e 512 -c 2 -a 0 -i 40 -k AGT
+ -t 15.650868095 -s 7 -d 11 -p cbr -e 532 -c 2 -a 0 -i 40 -k RTR 
- -t 15.650868095 -s 7 -d 11 -p cbr -e 532 -c 2 -a 0 -i 40 -k RTR
h -t 15.650868095 -s 7 -d 11 -p cbr -e 532 -c 2 -a 0 -i 40 -k RTR
r -t 15.656518331 -s 11 -d 11 -p cbr -e 512 -c 2 -a 0 -i 40 -k AGT
+ -t 15.721627788 -s 3 -d -1 -p cbr -e 512 -c 2 -a 0 -i 41 -k AGT 
- -t 15.721627788 -s 3 -d -1 -p cbr -e 512 -c 2 -a 0 -i 41 -k AGT
h -t 15.721627788 -s 3 -d -1 -p cbr -e 512 -c 2 -a 0 -i 41 -k AGT
+ -t 15.721627788 -s 3 -d 4 -p cbr -e 532 -c 2 -a 0 -i 41 -k RTR 
- -t 15.721627788 -s 3 -d 4 -p cbr -e 532 -c 2 -a 0 -i 41 -k RTR
h -t 15.721627788 -s 3 -d 4 -p cbr -e 532 -c 2 -a 0 -i 41 -k RTR
+ -t 15.727497788 -s 4 -d 10 -p cbr -e 532 -c 2 -a 0 -i 41 -k RTR 
- -t 15.727497788 -s 4 -d 10 -p cbr -e 532 -c 2 -a 0 -i 41 -k RTR
h -t 15.727497788 -s 4 -d 10 -p cbr -e 532 -c 2 -a 0 -i 41 -k RTR
+ -t 15.731406650 -s 0 -d -1 -p cbr -e 512 -c 2 -a 0 -i 42 -k AGT 
- -t 15.731406650 -s 0 -d -1 -p cbr -e 512 -c 2 -a 0 -i 42 -k AGT
h -t 15.731406650 -s 0 -d -1 -p cbr -e 512 -c 2 -a 0 -i 42 -k AGT
+ -t 15.731406650 -s 0 -d 4 -p cbr -e 532 -c 2 -a 0 -i 42 -k RTR 
- -t 15.731406650 -s 0 -d 4 -p cbr -e 532 -c 2 -a 0 -i 42 -k RTR
h -t 15.731406650 -s 0 -d 4 -p cbr -e 532 -c 2 -a 0 -i 42 -k RTR
+ -t 15.733311788 -s 10 -d 18 -p cbr -e 532 -c 2 -a 0 -i 41 -k RTR 
- -t 15.733311788 -s 10 -d 18 -p cbr -e 532 -c 2 -a 0 -i 41 -k RTR
h -t 15.733311788 -s 10 -d 18 -p cbr -e 532 -c 2 -a 0 -i 41 -k RTR
r -t 15.739626024 -s 18 -d 18 -p cbr -e 512 -c 2 -a 0 -i 41 -k AGT
+ -t 15.745430716 -s 4 -d 10 -p cbr -e 532 -c 2 -a 0 -i 42 -k RTR 
- -t 15.745430716 -s 4 -d 10 -p cbr -e 532 -c 2 -a 0 -i 42 -k RTR
h -t 15.745430716 -s 4 -d 10 -p cbr -e 532 -c 2 -a 0 -i 42 -k RTR
+ -t 15.751664716 -s 10 -d 18 -p cbr -e 532 -c 2 -a 0 -i 42 -k RTR 
- -t 15.751664716 -s 10 -d 18 -p cbr -e 532 -c 2 -a 0 -i 42 -k RTR
h -t 15.751664716 -s 10 -d 18 -p cbr -e 532 -c 2 -a 0 -i 42 -k RTR
r -t 15.757558952 -s 18 -d 18 -p cbr -e 512 -c 2 -a 0 -i 42 -k AGT
+ -t 15.776921200 -s 7 -d -1 -p cbr -e 512 -c 2 -a 0 -i 43 -k AGT 
- -t 15.776921200 -s 7 -d -1 -p cbr -e 512 -c 2 -a 0 -i 43 -k AGT
h -t 15.776921200 -s 7 -d -1 -p cbr -e 512 -c 2 -a 0 -i 43 -k AGT
+ -t 15.776921200 -s 7 -d 11 -p cbr -e 532 -c 2 -a 0 -i 43 -k RTR 
- -t 15.776921200 -s 7 -d 11 -p cbr -e 532 -c 2 -a 0 -i 43 -k RTR
h -t 15.776921200 -s 7 -d 11 -p cbr -e 532 -c 2 -a 0 -i 43 -k RTR
r -t 15.782491436 -s 11 -d 11 -p cbr -e 512 -c 2 -a 0 -i 43 -k AGT
+ -t 15.805045337 -s 3 -d -1 -p cbr -e 512 -c 2 -a 0 -i 44 -k AGT 
- -t 15.805045337 -s 3 -d -1 -p cbr -e 512 -c 2 -a 0 -i 44 -k AGT
h -t 15.805045337 -s 3 -d -1 -p cbr -e 512 -c 2 -a 0 -i 44 -k AGT
+ -t 15.805045337 -s 3 -d 4 -p cbr -e 532 -c 2 -a 0 -i 44 -k RTR 
- -t 15.805045337 -s 3 -d 4 -p cbr -e 532 -c 2 -a 0 -i 44 -k RTR
h -t 15.805045337 -s 3 -d 4 -p cbr -e 532 -c 2 -a 0 -i 44 -k RTR