Sconfig 0.00000 tap: on snoop: rts? on errs? on
Sconfig 0.00000 salvage: on !bd replies? on
Sconfig 0.00000 grat error: on grat reply: on
Sconfig 0.00000 $reply for props: on ring 0 search: on
Sconfig 0.00000 using MOBICACHE
s 15.000000000 _0_ AGT  --- 0 tcp 40 [0 0 0 0] ------- [0:0 19:0 32 0] [0 0] 0 0
r 15.000000000 _0_ RTR  --- 0 tcp 40 [0 0 0 0] ------- [0:0 19:0 32 0] [0 0] 0 0
s 15.000000000 _1_ AGT  --- 2 tcp 40 [0 0 0 0] ------- [1:0 18:0 32 0] [0 0] 0 0
r 15.000000000 _1_ RTR  --- 2 tcp 40 [0 0 0 0] ------- [1:0 18:0 32 0] [0 0] 0 0
s 15.000206779 _1_ RTR  --- 3 DSR 32 [0 0 0 0] ------- [1:255 18:255 32 0] 1 [1 1] [0 1 0 0->0] [0 0 0 0->0]
r 15.001459112 _0_ RTR  --- 3 DSR 32 [0 ffffffff 1 800] ------- [1:255 18:255 32 0] 1 [1 1] [0 1 0 0->0] [0 0 0 0->0]
r 15.001459112 _6_ RTR  --- 3 DSR 32 [0 ffffffff 1 800] ------- [1:255 18:255 32 0] 1 [1 1] [0 1 0 0->0] [0 0 0 0->0]
r 15.001459112 _2_ RTR  --- 3 DSR 32 [0 ffffffff 1 800] ------- [1:255 18:255 32 0] 1 [1 1] [0 1 0 0->0] [0 0 0 0->0]
r 15.001459250 _5_ RTR  --- 3 DSR 32 [0 ffffffff 1 800] ------- [1:255 18:255 32 0] 1 [1 1] [0 1 0 0->0] [0 0 0 0->0]
r 15.001459250 _7_ RTR  --- 3 DSR 32 [0 ffffffff 1 800] ------- [1:255 18:255 32 0] 1 [1 1] [0 1 0 0->0] [0 0 0 0->0]
r 15.001459445 _11_ RTR  --- 3 DSR 32 [0 ffffffff 1 800] ------- [1:255 18:255 32 0] 1 [1 1] [0 1 0 0->0] [0 0 0 0->0]
r 15.001459445 _3_ RTR  --- 3 DSR 32 [0 ffffffff 1 800] ------- [1:255 18:255 32 0] 1 [1 1] [0 1 0 0->0] [0 0 0 0->0]
r 15.001459524 _10_ RTR  --- 3 DSR 32 [0 ffffffff 1 800] ------- [1:255 18:255 32 0] 1 [1 1] [0 1 0 0->0] [0 0 0 0->0]
r 15.001459524 _12_ RTR  --- 3 DSR 32 [0 ffffffff 1 800] ------- [1:255 18:255 32 0] 1 [1 1] [0 1 0 0->0] [0 0 0 0->0]
r 15.001459524 _8_ RTR  --- 3 DSR 32 [0 ffffffff 1 800] ------- [1:255 18:255 32 0] 1 [1 1] [0 1 0 0->0] [0 0 0 0->0]
s 15.009488615 _0_ RTR  --- 1 DSR 32 [0 0 0 0] ------- [0:255 19:255 32 0] 1 [1 1] [0 1 0 0->0] [0 0 0 0->0]
r 15.010680949 _5_ RTR  --- 1 DSR 32 [0 ffffffff 0 800] ------- [0:255 19:255 32 0] 1 [1 1] [0 1 0 0->0] [0 0 0 0->0]
r 15.010680949 _1_ RTR  --- 1 DSR 32 [0 ffffffff 0 800] ------- [0:255 19:255 32 0] 1 [1 1] [0 1 0 0->0] [0 0 0 0->0]
r 15.010681087 _6_ RTR  --- 1 DSR 32 [0 ffffffff 0 800] ------- [0:255 19:255 32 0] 1 [1 1] [0 1 0 0->0] [0 0 0 0->0]
r 15.010681282 _10_ RTR  --- 1 DSR 32 [0 ffffffff 0 800] ------- [0:255 19:255 32 0] 1 [1 1] [0 1 0 0->0] [0 0 0 0->0]
r 15.010681282 _2_ RTR  --- 1 DSR 32 [0 ffffffff 0 800] ------- [0:255 19:255 32 0] 1 [1 1] [0 1 0 0->0] [0 0 0 0->0]
r 15.010681361 _11_ RTR  --- 1 DSR 32 [0 ffffffff 0 800] ------- [0:255 19:255 32 0] 1 [1 1] [0 1 0 0->0] [0 0 0 0->0]
r 15.010681361 _7_ RTR  --- 1 DSR 32 [0 ffffffff 0 800] ------- [0:255 19:255 32 0] 1 [1 1] [0 1 0 0->0] [0 0 0 0->0]
s 15.034999174 _1_ RTR  --- 5 DSR 32 [0 0 0 0] ------- [1:255 18:255 32 0] 1 [1 2] [0 2 0 0->16] [0 0 0 0->0]
r 15.036331507 _0_ RTR  --- 5 DSR 32 [0 ffffffff 1 800] ------- [1:255 18:255 32 0] 1 [1 2] [0 2 0 0->16] [0 0 0 0->0]
r 15.036331507 _6_ RTR  --- 5 DSR 32 [0 ffffffff 1 800] ------- [1:255 18:255 32 0] 1 [1 2] [0 2 0 0->16] [0 0 0 0->0]
r 15.036331507 _2_ RTR  --- 5 DSR 32 [0 ffffffff 1 800] ------- [1:255 18:255 32 0] 1 [1 2] [0 2 0 0->16] [0 0 0 0->0]
r 15.036331645 _5_ RTR  --- 5 DSR 32 [0 ffffffff 1 800] ------- [1:255 18:255 32 0] 1 [1 2] [0 2 0 0->16] [0 0 0 0->0]
r 15.036331645 _7_ RTR  --- 5 DSR 32 [0 ffffffff 1 800] ------- [1:255 18:255 32 0] 1 [1 2] [0 2 0 0->16] [0 0 0 0->0]
r 15.036331840 _11_ RTR  --- 5 DSR 32 [0 ffffffff 1 800] ------- [1:255 18:255 32 0] 1 [1 2] [0 2 0 0->16] [0 0 0 0->0]
r 15.036331840 _3_ RTR  --- 5 DSR 32 [0 ffffffff 1 800] ------- [1:255 18:255 32 0] 1 [1 2] [0 2 0 0->16] [0 0 0 0->0]
r 15.036331919 _10_ RTR  --- 5 DSR 32 [0 ffffffff 1 800] ------- [1:255 18:255 32 0] 1 [1 2] [0 2 0 0->16] [0 0 0 0->0]
r 15.036331919 _12_ RTR  --- 5 DSR 32 [0 ffffffff 1 800] ------- [1:255 18:255 32 0] 1 [1 2] [0 2 0 0->16] [0 0 0 0->0]
r 15.036331919 _8_ RTR  --- 5 DSR 32 [0 ffffffff 1 800] ------- [1:255 18:255 32 0] 1 [1 2] [0 2 0 0->16] [0 0 0 0->0]
f 15.038318159 _8_ RTR  --- 5 DSR 48 [0 ffffffff 1 800] ------- [1:255 18:255 32 0] 2 [1 2] [0 2 0 0->16] [0 0 0 0->0]
f 15.039462454 _10_ RTR  --- 5 DSR 48 [0 ffffffff 1 800] ------- [1:255 18:255 32 0] 2 [1 2] [0 2 0 0->16] [0 0 0 0->0]
r 15.039598493 _3_ RTR  --- 5 DSR 48 [0 ffffffff 8 800] ------- [1:255 18:255 32 0] 2 [1 2] [0 2 0 0->16] [0 0 0 0->0]
r 15.039598493 _7_ RTR  --- 5 DSR 48 [0 ffffffff 8 800] ------- [1:255 18:255 32 0] 2 [1 2] [0 2 0 0->16] [0 0 0 0->0]
r 15.039598493 _13_ RTR  --- 5 DSR 48 [0 ffffffff 8 800] ------- [1:255 18:255 32 0] 2 [1 2] [0 2 0 0->16] [0 0 0 0->0]
r 15.039598493 _9_ RTR  --- 5 DSR 48 [0 ffffffff 8 800] ------- [1:255 18:255 32 0] 2 [1 2] [0 2 0 0->16] [0 0 0 0->0]
r 15.039598631 _12_ RTR  --- 5 DSR 48 [0 ffffffff 8 800] ------- [1:255 18:255 32 0] 2 [1 2] [0 2 0 0->16] [0 0 0 0->0]
r 15.039598631 _2_ RTR  --- 5 DSR 48 [0 ffffffff 8 800] ------- [1:255 18:255 32 0] 2 [1 2] [0 2 0 0->16] [0 0 0 0->0]
r 15.039598631 _4_ RTR  --- 5 DSR 48 [0 ffffffff 8 800] ------- [1:255 18:255 32 0] 2 [1 2] [0 2 0 0->16] [0 0 0 0->0]
r 15.039598631 _14_ RTR  --- 5 DSR 48 [0 ffffffff 8 800] ------- [1:255 18:255 32 0] 2 [1 2] [0 2 0 0->16] [0 0 0 0->0]
r 15.039598826 _6_ RTR  --- 5 DSR 48 [0 ffffffff 8 800] ------- [1:255 18:255 32 0] 2 [1 2] [0 2 0 0->16] [0 0 0 0->0]
r 15.039598826 _18_ RTR  --- 5 DSR 48 [0 ffffffff 8 800] ------- [1:255 18:255 32 0] 2 [1 2] [0 2 0 0->16] [0 0 0 0->0]
r 15.039598905 _17_ RTR  --- 5 DSR 48 [0 ffffffff 8 800] ------- [1:255 18:255 32 0] 2 [1 2] [0 2 0 0->16] [0 0 0 0->0]
r 15.039598905 _11_ RTR  --- 5 DSR 48 [0 ffffffff 8 800] ------- [1:255 18:255 32 0] 2 [1 2] [0 2 0 0->16] [0 0 0 0->0]
r 15.039598905 _1_ RTR  --- 5 DSR 48 [0 ffffffff 8 800] ------- [1:255 18:255 32 0] 2 [1 2] [0 2 0 0->16] [0 0 0 0->0]
r 15.039598905 _19_ RTR  --- 5 DSR 48 [0 ffffffff 8 800] ------- [1:255 18:255 32 0] 2 [1 2] [0 2 0 0->16] [0 0 0 0->0]
f 15.039660469 _3_ RTR  --- 5 DSR 48 [0 ffffffff 1 800] ------- [1:255 18:255 32 0] 2 [1 2] [0 2 0 0->16] [0 0 0 0->0]
f 15.039741719 _13_ RTR  --- 5 DSR 68 [0 ffffffff 8 800] ------- [1:255 18:255 32 0] 3 [1 2] [0 2 0 0->16] [0 0 0 0->0]
f 15.039907129 _6_ RTR  --- 5 DSR 48 [0 ffffffff 1 800] ------- [1:255 18:255 32 0] 2 [1 2] [0 2 0 0->16] [0 0 0 0->0]
f 15.040424865 _19_ RTR  --- 5 DSR 68 [0 ffffffff 8 800] ------- [1:255 18:255 32 0] 3 [1 2] [0 2 0 0->16] [0 0 0 0->0]
f 15.040661250 _14_ RTR  --- 5 DSR 68 [0 ffffffff 8 800] ------- [1:255 18:255 32 0] 3 [1 2] [0 2 0 0->16] [0 0 0 0->0]
r 15.040907463 _1_ RTR  --- 5 DSR 48 [0 ffffffff 6 800] ------- [1:255 18:255 32 0] 2 [1 2] [0 2 0 0->16] [0 0 0 0->0]
r 15.040907463 _5_ RTR  --- 5 DSR 48 [0 ffffffff 6 800] ------- [1:255 18:255 32 0] 2 [1 2] [0 2 0 0->16] [0 0 0 0->0]
r 15.040907463 _11_ RTR  --- 5 DSR 48 [0 ffffffff 6 800] ------- [1:255 18:255 32 0] 2 [1 2] [0 2 0 0->16] [0 0 0 0->0]
r 15.040907463 _7_ RTR  --- 5 DSR 48 [0 ffffffff 6 800] ------- [1:255 18:255 32 0] 2 [1 2] [0 2 0 0->16] [0 0 0 0->0]
r 15.040907601 _10_ RTR  --- 5 DSR 48 [0 ffffffff 6 800] ------- [1:255 18:255 32 0] 2 [1 2] [0 2 0 0->16] [0 0 0 0->0]
r 15.040907601 _0_ RTR  --- 5 DSR 48 [0 ffffffff 6 800] ------- [1:255 18:255 32 0] 2 [1 2] [0 2 0 0->16] [0 0 0 0->0]
r 15.040907601 _2_ RTR  --- 5 DSR 48 [0 ffffffff 6 800] ------- [1:255 18:255 32 0] 2 [1 2] [0 2 0 0->16] [0 0 0 0->0]
r 15.040907601 _12_ RTR  --- 5 DSR 48 [0 ffffffff 6 800] ------- [1:255 18:255 32 0] 2 [1 2] [0 2 0 0->16] [0 0 0 0->0]
r 15.040907796 _16_ RTR  --- 5 DSR 48 [0 ffffffff 6 800] ------- [1:255 18:255 32 0] 2 [1 2] [0 2 0 0->16] [0 0 0 0->0]
r 15.040907796 _8_ RTR  --- 5 DSR 48 [0 ffffffff 6 800] ------- [1:255 18:255 32 0] 2 [1 2] [0 2 0 0->16] [0 0 0 0->0]
r 15.040907875 _15_ RTR  --- 5 DSR 48 [0 ffffffff 6 800] ------- [1:255 18:255 32 0] 2 [1 2] [0 2 0 0->16] [0 0 0 0->0]
r 15.040907875 _17_ RTR  --- 5 DSR 48 [0 ffffffff 6 800] ------- [1:255 18:255 32 0] 2 [1 2] [0 2 0 0->16] [0 0 0 0->0]
r 15.040907875 _3_ RTR  --- 5 DSR 48 [0 ffffffff 6 800] ------- [1:255 18:255 32 0] 2 [1 2] [0 2 0 0->16] [0 0 0 0->0]
r 15.040907875 _13_ RTR  --- 5 DSR 48 [0 ffffffff 6 800] ------- [1:255 18:255 32 0] 2 [1 2] [0 2 0 0->16] [0 0 0 0->0]
r 15.042018208 _2_ RTR  --- 5 DSR 48 [0 ffffffff 3 800] ------- [1:255 18:255 32 0] 2 [1 2] [0 2 0 0->16] [0 0 0 0->0]
r 15.042018208 _8_ RTR  --- 5 DSR 48 [0 ffffffff 3 800] ------- [1:255 18:255 32 0] 2 [1 2] [0 2 0 0->16] [0 0 0 0->0]
r 15.042018208 _4_ RTR  --- 5 DSR 48 [0 ffffffff 3 800] ------- [1:255 18:255 32 0] 2 [1 2] [0 2 0 0->16] [0 0 0 0->0]
r 15.042018346 _7_ RTR  --- 5 DSR 48 [0 ffffffff 3 800] ------- [1:255 18:255 32 0] 2 [1 2] [0 2 0 0->16] [0 0 0 0->0]
r 15.042018346 _9_ RTR  --- 5 DSR 48 [0 ffffffff 3 800] ------- [1:255 18:255 32 0] 2 [1 2] [0 2 0 0->16] [0 0 0 0->0]
r 15.042018541 _1_ RTR  --- 5 DSR 48 [0 ffffffff 3 800] ------- [1:255 18:255 32 0] 2 [1 2] [0 2 0 0->16] [0 0 0 0->0]
r 15.042018541 _13_ RTR  --- 5 DSR 48 [0 ffffffff 3 800] ------- [1:255 18:255 32 0] 2 [1 2] [0 2 0 0->16] [0 0 0 0->0]
r 15.042018620 _12_ RTR  --- 5 DSR 48 [0 ffffffff 3 800] ------- [1:255 18:255 32 0] 2 [1 2] [0 2 0 0->16] [0 0 0 0->0]
r 15.042018620 _6_ RTR  --- 5 DSR 48 [0 ffffffff 3 800] ------- [1:255 18:255 32 0] 2 [1 2] [0 2 0 0->16] [0 0 0 0->0]
r 15.042018620 _14_ RTR  --- 5 DSR 48 [0 ffffffff 3 800] ------- [1:255 18:255 32 0] 2 [1 2] [0 2 0 0->16] [0 0 0 0->0]
f 15.042688642 _11_ RTR  --- 5 DSR 48 [0 ffffffff 1 800] ------- [1:255 18:255 32 0] 2 [1 2] [0 2 0 0->16] [0 0 0 0->0]
f 15.042789262 _12_ RTR  --- 5 DSR 48 [0 ffffffff 1 800] ------- [1:255 18:255 32 0] 2 [1 2] [0 2 0 0->16] [0 0 0 0->0]
f 15.042795291 _5_ RTR  --- 5 DSR 48 [0 ffffffff 1 800] ------- [1:255 18:255 32 0] 2 [1 2] [0 2 0 0->16] [0 0 0 0->0]
r 15.043048875 _8_ RTR  --- 5 DSR 68 [0 ffffffff d 800] ------- [1:255 18:255 32 0] 3 [1 2] [0 2 0 0->16] [0 0 0 0->0]
r 15.043048875 _12_ RTR  --- 5 DSR 68 [0 ffffffff d 800] ------- [1:255 18:255 32 0] 3 [1 2] [0 2 0 0->16] [0 0 0 0->0]
r 15.043048875 _18_ RTR  --- 5 DSR 68 [0 ffffffff d 800] ------- [1:255 18:255 32 0] 3 [1 2] [0 2 0 0->16] [0 0 0 0->0]
r 15.043048875 _14_ RTR  --- 5 DSR 68 [0 ffffffff d 800] ------- [1:255 18:255 32 0] 3 [1 2] [0 2 0 0->16] [0 0 0 0->0]
r 15.043049013 _17_ RTR  --- 5 DSR 68 [0 ffffffff d 800] ------- [1:255 18:255 32 0] 3 [1 2] [0 2 0 0->16] [0 0 0 0->0]
r 15.043049013 _7_ RTR  --- 5 DSR 68 [0 ffffffff d 800] ------- [1:255 18:255 32 0] 3 [1 2] [0 2 0 0->16] [0 0 0 0->0]
r 15.043049013 _9_ RTR  --- 5 DSR 68 [0 ffffffff d 800] ------- [1:255 18:255 32 0] 3 [1 2] [0 2 0 0->16] [0 0 0 0->0]
r 15.043049013 _19_ RTR  --- 5 DSR 68 [0 ffffffff d 800] ------- [1:255 18:255 32 0] 3 [1 2] [0 2 0 0->16] [0 0 0 0->0]
r 15.043049208 _3_ RTR  --- 5 DSR 68 [0 ffffffff d 800] ------- [1:255 18:255 32 0] 3 [1 2] [0 2 0 0->16] [0 0 0 0->0]
r 15.043049208 _11_ RTR  --- 5 DSR 68 [0 ffffffff d 800] ------- [1:255 18:255 32 0] 3 [1 2] [0 2 0 0->16] [0 0 0 0->0]
r 15.043049287 _2_ RTR  --- 5 DSR 68 [0 ffffffff d 800] ------- [1:255 18:255 32 0] 3 [1 2] [0 2 0 0->16] [0 0 0 0->0]
r 15.043049287 _16_ RTR  --- 5 DSR 68 [0 ffffffff d 800] ------- [1:255 18:255 32 0] 3 [1 2] [0 2 0 0->16] [0 0 0 0->0]
r 15.043049287 _6_ RTR  --- 5 DSR 68 [0 ffffffff d 800] ------- [1:255 18:255 32 0] 3 [1 2] [0 2 0 0->16] [0 0 0 0->0]
r 15.043049287 _4_ RTR  --- 5 DSR 68 [0 ffffffff d 800] ------- [1:255 18:255 32 0] 3 [1 2] [0 2 0 0->16] [0 0 0 0->0]
f 15.043455948 _4_ RTR  --- 5 DSR 68 [0 ffffffff 8 800] ------- [1:255 18:255 32 0] 3 [1 2] [0 2 0 0->16] [0 0 0 0->0]
r 15.044159346 _14_ RTR  --- 5 DSR 68 [0 ffffffff 13 800] ------- [1:255 18:255 32 0] 3 [1 2] [0 2 0 0->16] [0 0 0 0->0]
r 15.044159346 _18_ RTR  --- 5 DSR 68 [0 ffffffff 13 800] ------- [1:255 18:255 32 0] 3 [1 2] [0 2 0 0->16] [0 0 0 0->0]
r 15.044159484 _13_ RTR  --- 5 DSR 68 [0 ffffffff 13 800] ------- [1:255 18:255 32 0] 3 [1 2] [0 2 0 0->16] [0 0 0 0->0]
r 15.044159679 _9_ RTR  --- 5 DSR 68 [0 ffffffff 13 800] ------- [1:255 18:255 32 0] 3 [1 2] [0 2 0 0->16] [0 0 0 0->0]
r 15.044159679 _17_ RTR  --- 5 DSR 68 [0 ffffffff 13 800] ------- [1:255 18:255 32 0] 3 [1 2] [0 2 0 0->16] [0 0 0 0->0]
r 15.044159758 _8_ RTR  --- 5 DSR 68 [0 ffffffff 13 800] ------- [1:255 18:255 32 0] 3 [1 2] [0 2 0 0->16] [0 0 0 0->0]
r 15.044159758 _12_ RTR  --- 5 DSR 68 [0 ffffffff 13 800] ------- [1:255 18:255 32 0] 3 [1 2] [0 2 0 0->16] [0 0 0 0->0]
f 15.044376591 _9_ RTR  --- 5 DSR 68 [0 ffffffff 8 800] ------- [1:255 18:255 32 0] 3 [1 2] [0 2 0 0->16] [0 0 0 0->0]
f 15.044699720 _2_ RTR  --- 5 DSR 48 [0 ffffffff 1 800] ------- [1:255 18:255 32 0] 2 [1 2] [0 2 0 0->16] [0 0 0 0->0]
f 15.045004671 _0_ RTR  --- 5 DSR 48 [0 ffffffff 1 800] ------- [1:255 18:255 32 0] 2 [1 2] [0 2 0 0->16] [0 0 0 0->0]
r 15.045189679 _9_ RTR  --- 5 DSR 68 [0 ffffffff e 800] ------- [1:255 18:255 32 0] 3 [1 2] [0 2 0 0->16] [0 0 0 0->0]
r 15.045189679 _13_ RTR  --- 5 DSR 68 [0 ffffffff e 800] ------- [1:255 18:255 32 0] 3 [1 2] [0 2 0 0->16] [0 0 0 0->0]
r 15.045189679 _19_ RTR  --- 5 DSR 68 [0 ffffffff e 800] ------- [1:255 18:255 32 0] 3 [1 2] [0 2 0 0->16] [0 0 0 0->0]
r 15.045189817 _18_ RTR  --- 5 DSR 68 [0 ffffffff e 800] ------- [1:255 18:255 32 0] 3 [1 2] [0 2 0 0->16] [0 0 0 0->0]
r 15.045189817 _8_ RTR  --- 5 DSR 68 [0 ffffffff e 800] ------- [1:255 18:255 32 0] 3 [1 2] [0 2 0 0->16] [0 0 0 0->0]
r 15.045190013 _4_ RTR  --- 5 DSR 68 [0 ffffffff e 800] ------- [1:255 18:255 32 0] 3 [1 2] [0 2 0 0->16] [0 0 0 0->0]
r 15.045190013 _12_ RTR  --- 5 DSR 68 [0 ffffffff e 800] ------- [1:255 18:255 32 0] 3 [1 2] [0 2 0 0->16] [0 0 0 0->0]
r 15.045190091 _3_ RTR  --- 5 DSR 68 [0 ffffffff e 800] ------- [1:255 18:255 32 0] 3 [1 2] [0 2 0 0->16] [0 0 0 0->0]
r 15.045190091 _17_ RTR  --- 5 DSR 68 [0 ffffffff e 800] ------- [1:255 18:255 32 0] 3 [1 2] [0 2 0 0->16] [0 0 0 0->0]
r 15.045190091 _7_ RTR  --- 5 DSR 68 [0 ffffffff e 800] ------- [1:255 18:255 32 0] 3 [1 2] [0 2 0 0->16] [0 0 0 0->0]
f 15.045406279 _7_ RTR  --- 5 DSR 48 [0 ffffffff 1 800] ------- [1:255 18:255 32 0] 2 [1 2] [0 2 0 0->16] [0 0 0 0->0]
r 15.046240013 _4_ RTR  --- 5 DSR 68 [0 ffffffff 9 800] ------- [1:255 18:255 32 0] 3 [1 2] [0 2 0 0->16] [0 0 0 0->0]
r 15.046240013 _8_ RTR  --- 5 DSR 68 [0 ffffffff 9 800] ------- [1:255 18:255 32 0] 3 [1 2] [0 2 0 0->16] [0 0 0 0->0]
r 15.046240013 _14_ RTR  --- 5 DSR 68 [0 ffffffff 9 800] ------- [1:255 18:255 32 0] 3 [1 2] [0 2 0 0->16] [0 0 0 0->0]
r 15.046240151 _13_ RTR  --- 5 DSR 68 [0 ffffffff 9 800] ------- [1:255 18:255 32 0] 3 [1 2] [0 2 0 0->16] [0 0 0 0->0]
r 15.046240151 _3_ RTR  --- 5 DSR 68 [0 ffffffff 9 800] ------- [1:255 18:255 32 0] 3 [1 2] [0 2 0 0->16] [0 0 0 0->0]
r 15.046240346 _7_ RTR  --- 5 DSR 68 [0 ffffffff 9 800] ------- [1:255 18:255 32 0] 3 [1 2] [0 2 0 0->16] [0 0 0 0->0]
r 15.046240346 _19_ RTR  --- 5 DSR 68 [0 ffffffff 9 800] ------- [1:255 18:255 32 0] 3 [1 2] [0 2 0 0->16] [0 0 0 0->0]
r 15.046240425 _18_ RTR  --- 5 DSR 68 [0 ffffffff 9 800] ------- [1:255 18:255 32 0] 3 [1 2] [0 2 0 0->16] [0 0 0 0->0]
r 15.046240425 _12_ RTR  --- 5 DSR 68 [0 ffffffff 9 800] ------- [1:255 18:255 32 0] 3 [1 2] [0 2 0 0->16] [0 0 0 0->0]
r 15.046240425 _2_ RTR  --- 5 DSR 68 [0 ffffffff 9 800] ------- [1:255 18:255 32 0] 3 [1 2] [0 2 0 0->16] [0 0 0 0->0]
f 15.046794487 _17_ RTR  --- 5 DSR 68 [0 ffffffff 8 800] ------- [1:255 18:255 32 0] 3 [1 2] [0 2 0 0->16] [0 0 0 0->0]
f 15.046996441 _15_ RTR  --- 5 DSR 68 [0 ffffffff 6 800] ------- [1:255 18:255 32 0] 3 [1 2] [0 2 0 0->16] [0 0 0 0->0]
r 15.047290758 _1_ RTR  --- 5 DSR 48 [0 ffffffff 2 800] ------- [1:255 18:255 32 0] 2 [1 2] [0 2 0 0->16] [0 0 0 0->0]
r 15.047290758 _7_ RTR  --- 5 DSR 48 [0 ffffffff 2 800] ------- [1:255 18:255 32 0] 2 [1 2] [0 2 0 0->16] [0 0 0 0->0]
r 15.047290758 _3_ RTR  --- 5 DSR 48 [0 ffffffff 2 800] ------- [1:255 18:255 32 0] 2 [1 2] [0 2 0 0->16] [0 0 0 0->0]
r 15.047290896 _6_ RTR  --- 5 DSR 48 [0 ffffffff 2 800] ------- [1:255 18:255 32 0] 2 [1 2] [0 2 0 0->16] [0 0 0 0->0]
r 15.047290896 _8_ RTR  --- 5 DSR 48 [0 ffffffff 2 800] ------- [1:255 18:255 32 0] 2 [1 2] [0 2 0 0->16] [0 0 0 0->0]
r 15.047291091 _0_ RTR  --- 5 DSR 48 [0 ffffffff 2 800] ------- [1:255 18:255 32 0] 2 [1 2] [0 2 0 0->16] [0 0 0 0->0]
r 15.047291091 _12_ RTR  --- 5 DSR 48 [0 ffffffff 2 800] ------- [1:255 18:255 32 0] 2 [1 2] [0 2 0 0->16] [0 0 0 0->0]
r 15.047291091 _4_ RTR  --- 5 DSR 48 [0 ffffffff 2 800] ------- [1:255 18:255 32 0] 2 [1 2] [0 2 0 0->16] [0 0 0 0->0]
r 15.047291170 _11_ RTR  --- 5 DSR 48 [0 ffffffff 2 800] ------- [1:255 18:255 32 0] 2 [1 2] [0 2 0 0->16] [0 0 0 0->0]
r 15.047291170 _5_ RTR  --- 5 DSR 48 [0 ffffffff 2 800] ------- [1:255 18:255 32 0] 2 [1 2] [0 2 0 0->16] [0 0 0 0->0]
r 15.047291170 _13_ RTR  --- 5 DSR 48 [0 ffffffff 2 800] ------- [1:255 18:255 32 0] 2 [1 2] [0 2 0 0->16] [0 0 0 0->0]
r 15.047291170 _9_ RTR  --- 5 DSR 48 [0 ffffffff 2 800] ------- [1:255 18:255 32 0] 2 [1 2] [0 2 0 0->16] [0 0 0 0->0]
f 15.047600115 _16_ RTR  --- 5 DSR 68 [0 ffffffff 6 800] ------- [1:255 18:255 32 0] 3 [1 2] [0 2 0 0->16] [0 0 0 0->0]
r 15.048141503 _0_ RTR  --- 5 DSR 48 [0 ffffffff 5 800] ------- [1:255 18:255 32 0] 2 [1 2] [0 2 0 0->16] [0 0 0 0->0]
r 15.048141503 _10_ RTR  --- 5 DSR 48 [0 ffffffff 5 800] ------- [1:255 18:255 32 0] 2 [1 2] [0 2 0 0->16] [0 0 0 0->0]
r 15.048141503 _6_ RTR  --- 5 DSR 48 [0 ffffffff 5 800] ------- [1:255 18:255 32 0] 2 [1 2] [0 2 0 0->16] [0 0 0 0->0]
r 15.048141642 _1_ RTR  --- 5 DSR 48 [0 ffffffff 5 800] ------- [1:255 18:255 32 0] 2 [1 2] [0 2 0 0->16] [0 0 0 0->0]
r 15.048141642 _11_ RTR  --- 5 DSR 48 [0 ffffffff 5 800] ------- [1:255 18:255 32 0] 2 [1 2] [0 2 0 0->16] [0 0 0 0->0]
r 15.048141837 _15_ RTR  --- 5 DSR 48 [0 ffffffff 5 800] ------- [1:255 18:255 32 0] 2 [1 2] [0 2 0 0->16] [0 0 0 0->0]
r 15.048141837 _7_ RTR  --- 5 DSR 48 [0 ffffffff 5 800] ------- [1:255 18:255 32 0] 2 [1 2] [0 2 0 0->16] [0 0 0 0->0]
r 15.048141915 _16_ RTR  --- 5 DSR 48 [0 ffffffff 5 800] ------- [1:255 18:255 32 0] 2 [1 2] [0 2 0 0->16] [0 0 0 0->0]
r 15.048141915 _2_ RTR  --- 5 DSR 48 [0 ffffffff 5 800] ------- [1:255 18:255 32 0] 2 [1 2] [0 2 0 0->16] [0 0 0 0->0]
r 15.048141915 _12_ RTR  --- 5 DSR 48 [0 ffffffff 5 800] ------- [1:255 18:255 32 0] 2 [1 2] [0 2 0 0->16] [0 0 0 0->0]
s 15.048350385 _18_ RTR  --- 10 DSR 60 [0 0 0 0] ------- [18:255 1:255 254 9] 4 [0 2] [1 2 4 1->18] [0 0 0 0->0]
s 15.048587851 _18_ RTR  --- 7 DSR 60 [0 0 0 0] ------- [18:255 1:255 254 13] 4 [0 2] [1 2 4 1->18] [0 0 0 0->0]
r 15.049051837 _5_ RTR  --- 5 DSR 48 [0 ffffffff a 800] ------- [1:255 18:255 32 0] 2 [1 2] [0 2 0 0->16] [0 0 0 0->0]
r 15.049051837 _15_ RTR  --- 5 DSR 48 [0 ffffffff a 800] ------- [1:255 18:255 32 0] 2 [1 2] [0 2 0 0->16] [0 0 0 0->0]
r 15.049051837 _11_ RTR  --- 5 DSR 48 [0 ffffffff a 800] ------- [1:255 18:255 32 0] 2 [1 2] [0 2 0 0->16] [0 0 0 0->0]
r 15.049051975 _6_ RTR  --- 5 DSR 48 [0 ffffffff a 800] ------- [1:255 18:255 32 0] 2 [1 2] [0 2 0 0->16] [0 0 0 0->0]
r 15.049051975 _16_ RTR  --- 5 DSR 48 [0 ffffffff a 800] ------- [1:255 18:255 32 0] 2 [1 2] [0 2 0 0->16] [0 0 0 0->0]
r 15.049052170 _0_ RTR  --- 5 DSR 48 [0 ffffffff a 800] ------- [1:255 18:255 32 0] 2 [1 2] [0 2 0 0->16] [0 0 0 0->0]
r 15.049052170 _12_ RTR  --- 5 DSR 48 [0 ffffffff a 800] ------- [1:255 18:255 32 0] 2 [1 2] [0 2 0 0->16] [0 0 0 0->0]
r 15.049052249 _1_ RTR  --- 5 DSR 48 [0 ffffffff a 800] ------- [1:255 18:255 32 0] 2 [1 2] [0 2 0 0->16] [0 0 0 0->0]
r 15.049052249 _7_ RTR  --- 5 DSR 48 [0 ffffffff a 800] ------- [1:255 18:255 32 0] 2 [1 2] [0 2 0 0->16] [0 0 0 0->0]
r 15.049052249 _17_ RTR  --- 5 DSR 48 [0 ffffffff a 800] ------- [1:255 18:255 32 0] 2 [1 2] [0 2 0 0->16] [0 0 0 0->0]
s 15.049567242 _18_ RTR  --- 6 DSR 52 [0 0 0 0] ------- [18:255 1:255 254 8] 3 [0 2] [1 2 3 1->18] [0 0 0 0->0]
r 15.049922503 _1_ RTR  --- 5 DSR 48 [0 ffffffff 0 800] ------- [1:255 18:255 32 0] 2 [1 2] [0 2 0 0->16] [0 0 0 0->0]
r 15.049922837 _2_ RTR  --- 5 DSR 48 [0 ffffffff 0 800] ------- [1:255 18:255 32 0] 2 [1 2] [0 2 0 0->16] [0 0 0 0->0]
r 15.050082170 _10_ RTR  --- 5 DSR 68 [0 ffffffff f 800] ------- [1:255 18:255 32 0] 3 [1 2] [0 2 0 0->16] [0 0 0 0->0]
r 15.050082170 _16_ RTR  --- 5 DSR 68 [0 ffffffff f 800] ------- [1:255 18:255 32 0] 3 [1 2] [0 2 0 0->16] [0 0 0 0->0]
r 15.050082503 _17_ RTR  --- 5 DSR 68 [0 ffffffff f 800] ------- [1:255 18:255 32 0] 3 [1 2] [0 2 0 0->16] [0 0 0 0->0]
s 15.050121062 _18_ RTR  --- 8 DSR 60 [0 0 0 0] ------- [18:255 1:255 254 19] 4 [0 2] [1 2 4 1->18] [0 0 0 0->0]
r 15.051356915 _7_ RTR  --- 5 DSR 48 [0 ffffffff c 800] ------- [1:255 18:255 32 0] 2 [1 2] [0 2 0 0->16] [0 0 0 0->0]
r 15.051356915 _11_ RTR  --- 5 DSR 48 [0 ffffffff c 800] ------- [1:255 18:255 32 0] 2 [1 2] [0 2 0 0->16] [0 0 0 0->0]
r 15.051356915 _17_ RTR  --- 5 DSR 48 [0 ffffffff c 800] ------- [1:255 18:255 32 0] 2 [1 2] [0 2 0 0->16] [0 0 0 0->0]
r 15.051356915 _13_ RTR  --- 5 DSR 48 [0 ffffffff c 800] ------- [1:255 18:255 32 0] 2 [1 2] [0 2 0 0->16] [0 0 0 0->0]
r 15.051357054 _16_ RTR  --- 5 DSR 48 [0 ffffffff c 800] ------- [1:255 18:255 32 0] 2 [1 2] [0 2 0 0->16] [0 0 0 0->0]
r 15.051357054 _6_ RTR  --- 5 DSR 48 [0 ffffffff c 800] ------- [1:255 18:255 32 0] 2 [1 2] [0 2 0 0->16] [0 0 0 0->0]
r 15.051357054 _18_ RTR  --- 5 DSR 48 [0 ffffffff c 800] ------- [1:255 18:255 32 0] 2 [1 2] [0 2 0 0->16] [0 0 0 0->0]
r 15.051357249 _10_ RTR  --- 5 DSR 48 [0 ffffffff c 800] ------- [1:255 18:255 32 0] 2 [1 2] [0 2 0 0->16] [0 0 0 0->0]
r 15.051357327 _15_ RTR  --- 5 DSR 48 [0 ffffffff c 800] ------- [1:255 18:255 32 0] 2 [1 2] [0 2 0 0->16] [0 0 0 0->0]
r 15.051357327 _5_ RTR  --- 5 DSR 48 [0 ffffffff c 800] ------- [1:255 18:255 32 0] 2 [1 2] [0 2 0 0->16] [0 0 0 0->0]
r 15.052872582 _2_ RTR  --- 5 DSR 48 [0 ffffffff 7 800] ------- [1:255 18:255 32 0] 2 [1 2] [0 2 0 0->16] [0 0 0 0->0]
r 15.052872582 _6_ RTR  --- 5 DSR 48 [0 ffffffff 7 800] ------- [1:255 18:255 32 0] 2 [1 2] [0 2 0 0->16] [0 0 0 0->0]
r 15.052872582 _12_ RTR  --- 5 DSR 48 [0 ffffffff 7 800] ------- [1:255 18:255 32 0] 2 [1 2] [0 2 0 0->16] [0 0 0 0->0]
r 15.052872582 _8_ RTR  --- 5 DSR 48 [0 ffffffff 7 800] ------- [1:255 18:255 32 0] 2 [1 2] [0 2 0 0->16] [0 0 0 0->0]
r 15.052872720 _11_ RTR  --- 5 DSR 48 [0 ffffffff 7 800] ------- [1:255 18:255 32 0] 2 [1 2] [0 2 0 0->16] [0 0 0 0->0]
r 15.052872720 _1_ RTR  --- 5 DSR 48 [0 ffffffff 7 800] ------- [1:255 18:255 32 0] 2 [1 2] [0 2 0 0->16] [0 0 0 0->0]
r 15.052872720 _3_ RTR  --- 5 DSR 48 [0 ffffffff 7 800] ------- [1:255 18:255 32 0] 2 [1 2] [0 2 0 0->16] [0 0 0 0->0]
r 15.052872720 _13_ RTR  --- 5 DSR 48 [0 ffffffff 7 800] ------- [1:255 18:255 32 0] 2 [1 2] [0 2 0 0->16] [0 0 0 0->0]
r 15.052872915 _5_ RTR  --- 5 DSR 48 [0 ffffffff 7 800] ------- [1:255 18:255 32 0] 2 [1 2] [0 2 0 0->16] [0 0 0 0->0]
r 15.052872915 _17_ RTR  --- 5 DSR 48 [0 ffffffff 7 800] ------- [1:255 18:255 32 0] 2 [1 2] [0 2 0 0->16] [0 0 0 0->0]
r 15.052872915 _9_ RTR  --- 5 DSR 48 [0 ffffffff 7 800] ------- [1:255 18:255 32 0] 2 [1 2] [0 2 0 0->16] [0 0 0 0->0]
r 15.052872994 _16_ RTR  --- 5 DSR 48 [0 ffffffff 7 800] ------- [1:255 18:255 32 0] 2 [1 2] [0 2 0 0->16] [0 0 0 0->0]
r 15.052872994 _10_ RTR  --- 5 DSR 48 [0 ffffffff 7 800] ------- [1:255 18:255 32 0] 2 [1 2] [0 2 0 0->16] [0 0 0 0->0]
r 15.052872994 _0_ RTR  --- 5 DSR 48 [0 ffffffff 7 800] ------- [1:255 18:255 32 0] 2 [1 2] [0 2 0 0->16] [0 0 0 0->0]
r 15.052872994 _18_ RTR  --- 5 DSR 48 [0 ffffffff 7 800] ------- [1:255 18:255 32 0] 2 [1 2] [0 2 0 0->16] [0 0 0 0->0]
r 15.052872994 _4_ RTR  --- 5 DSR 48 [0 ffffffff 7 800] ------- [1:255 18:255 32 0] 2 [1 2] [0 2 0 0->16] [0 0 0 0->0]
r 15.052872994 _14_ RTR  --- 5 DSR 48 [0 ffffffff 7 800] ------- [1:255 18:255 32 0] 2 [1 2] [0 2 0 0->16] [0 0 0 0->0]
s 15.053318966 _18_ RTR  --- 11 DSR 52 [0 0 0 0] ------- [18:255 1:255 254 12] 3 [0 2] [1 2 3 1->18] [0 0 0 0->0]
s 15.053617775 _18_ RTR  --- 9 DSR 60 [0 0 0 0] ------- [18:255 1:255 254 14] 4 [0 2] [1 2 4 1->18] [0 0 0 0->0]
r 15.054517230 _9_ RTR  --- 10 DSR 60 [13a 9 12 800] ------- [18:255 1:255 254 9] 4 [0 2] [1 2 4 1->18] [0 0 0 0->0]
f 15.054517230 _9_ RTR  --- 10 DSR 60 [13a 9 12 800] ------- [18:255 1:255 253 8] 4 [0 2] [1 2 4 1->18] [0 0 0 0->0]
r 15.056715390 _14_ RTR  --- 9 DSR 60 [13a e 12 800] ------- [18:255 1:255 254 14] 4 [0 2] [1 2 4 1->18] [0 0 0 0->0]
f 15.056715390 _14_ RTR  --- 9 DSR 60 [13a e 12 800] ------- [18:255 1:255 253 8] 4 [0 2] [1 2 4 1->18] [0 0 0 0->0]
r 15.058240468 _12_ RTR  --- 5 DSR 68 [0 ffffffff 11 800] ------- [1:255 18:255 32 0] 3 [1 2] [0 2 0 0->16] [0 0 0 0->0]
r 15.058240468 _16_ RTR  --- 5 DSR 68 [0 ffffffff 11 800] ------- [1:255 18:255 32 0] 3 [1 2] [0 2 0 0->16] [0 0 0 0->0]
r 15.058240468 _18_ RTR  --- 5 DSR 68 [0 ffffffff 11 800] ------- [1:255 18:255 32 0] 3 [1 2] [0 2 0 0->16] [0 0 0 0->0]
r 15.058240607 _11_ RTR  --- 5 DSR 68 [0 ffffffff 11 800] ------- [1:255 18:255 32 0] 3 [1 2] [0 2 0 0->16] [0 0 0 0->0]
r 15.058240607 _13_ RTR  --- 5 DSR 68 [0 ffffffff 11 800] ------- [1:255 18:255 32 0] 3 [1 2] [0 2 0 0->16] [0 0 0 0->0]
r 15.058240802 _7_ RTR  --- 5 DSR 68 [0 ffffffff 11 800] ------- [1:255 18:255 32 0] 3 [1 2] [0 2 0 0->16] [0 0 0 0->0]
r 15.058240802 _15_ RTR  --- 5 DSR 68 [0 ffffffff 11 800] ------- [1:255 18:255 32 0] 3 [1 2] [0 2 0 0->16] [0 0 0 0->0]
r 15.058240802 _19_ RTR  --- 5 DSR 68 [0 ffffffff 11 800] ------- [1:255 18:255 32 0] 3 [1 2] [0 2 0 0->16] [0 0 0 0->0]
r 15.058240880 _6_ RTR  --- 5 DSR 68 [0 ffffffff 11 800] ------- [1:255 18:255 32 0] 3 [1 2] [0 2 0 0->16] [0 0 0 0->0]
r 15.058240880 _10_ RTR  --- 5 DSR 68 [0 ffffffff 11 800] ------- [1:255 18:255 32 0] 3 [1 2] [0 2 0 0->16] [0 0 0 0->0]
r 15.058240880 _8_ RTR  --- 5 DSR 68 [0 ffffffff 11 800] ------- [1:255 18:255 32 0] 3 [1 2] [0 2 0 0->16] [0 0 0 0->0]
r 15.058240880 _14_ RTR  --- 5 DSR 68 [0 ffffffff 11 800] ------- [1:255 18:255 32 0] 3 [1 2] [0 2 0 0->16] [0 0 0 0->0]
r 15.059330802 _11_ RTR  --- 5 DSR 68 [0 ffffffff 10 800] ------- [1:255 18:255 32 0] 3 [1 2] [0 2 0 0->16] [0 0 0 0->0]
r 15.059330802 _15_ RTR  --- 5 DSR 68 [0 ffffffff 10 800] ------- [1:255 18:255 32 0] 3 [1 2] [0 2 0 0->16] [0 0 0 0->0]
r 15.059330802 _17_ RTR  --- 5 DSR 68 [0 ffffffff 10 800] ------- [1:255 18:255 32 0] 3 [1 2] [0 2 0 0->16] [0 0 0 0->0]
r 15.059330940 _10_ RTR  --- 5 DSR 68 [0 ffffffff 10 800] ------- [1:255 18:255 32 0] 3 [1 2] [0 2 0 0->16] [0 0 0 0->0]
r 15.059330940 _12_ RTR  --- 5 DSR 68 [0 ffffffff 10 800] ------- [1:255 18:255 32 0] 3 [1 2] [0 2 0 0->16] [0 0 0 0->0]
r 15.059331135 _6_ RTR  --- 5 DSR 68 [0 ffffffff 10 800] ------- [1:255 18:255 32 0] 3 [1 2] [0 2 0 0->16] [0 0 0 0->0]
r 15.059331135 _18_ RTR  --- 5 DSR 68 [0 ffffffff 10 800] ------- [1:255 18:255 32 0] 3 [1 2] [0 2 0 0->16] [0 0 0 0->0]
r 15.059331214 _5_ RTR  --- 5 DSR 68 [0 ffffffff 10 800] ------- [1:255 18:255 32 0] 3 [1 2] [0 2 0 0->16] [0 0 0 0->0]
r 15.059331214 _7_ RTR  --- 5 DSR 68 [0 ffffffff 10 800] ------- [1:255 18:255 32 0] 3 [1 2] [0 2 0 0->16] [0 0 0 0->0]
r 15.059331214 _13_ RTR  --- 5 DSR 68 [0 ffffffff 10 800] ------- [1:255 18:255 32 0] 3 [1 2] [0 2 0 0->16] [0 0 0 0->0]
r 15.060241135 _6_ RTR  --- 5 DSR 48 [0 ffffffff b 800] ------- [1:255 18:255 32 0] 2 [1 2] [0 2 0 0->16] [0 0 0 0->0]
r 15.060241135 _10_ RTR  --- 5 DSR 48 [0 ffffffff b 800] ------- [1:255 18:255 32 0] 2 [1 2] [0 2 0 0->16] [0 0 0 0->0]
r 15.060241135 _16_ RTR  --- 5 DSR 48 [0 ffffffff b 800] ------- [1:255 18:255 32 0] 2 [1 2] [0 2 0 0->16] [0 0 0 0->0]
r 15.060241273 _15_ RTR  --- 5 DSR 48 [0 ffffffff b 800] ------- [1:255 18:255 32 0] 2 [1 2] [0 2 0 0->16] [0 0 0 0->0]
r 15.060241273 _5_ RTR  --- 5 DSR 48 [0 ffffffff b 800] ------- [1:255 18:255 32 0] 2 [1 2] [0 2 0 0->16] [0 0 0 0->0]
r 15.060241468 _1_ RTR  --- 5 DSR 48 [0 ffffffff b 800] ------- [1:255 18:255 32 0] 2 [1 2] [0 2 0 0->16] [0 0 0 0->0]
r 15.060241547 _0_ RTR  --- 5 DSR 48 [0 ffffffff b 800] ------- [1:255 18:255 32 0] 2 [1 2] [0 2 0 0->16] [0 0 0 0->0]
r 15.060241547 _18_ RTR  --- 5 DSR 48 [0 ffffffff b 800] ------- [1:255 18:255 32 0] 2 [1 2] [0 2 0 0->16] [0 0 0 0->0]
s 15.061070350 _0_ RTR  --- 16 DSR 32 [0 0 0 0] ------- [0:255 19:255 32 0] 1 [1 2] [0 2 0 0->16] [0 0 0 0->0]
s 15.061809361 _18_ RTR  --- 14 DSR 60 [0 0 0 0] ------- [18:255 1:255 254 16] 4 [0 2] [1 2 4 1->18] [0 0 0 0->0]
r 15.062100961 _12_ RTR  --- 11 DSR 52 [13a c 12 800] ------- [18:255 1:255 254 12] 3 [0 2] [1 2 3 1->18] [0 0 0 0->0]
f 15.062100961 _12_ RTR  --- 11 DSR 52 [13a c 12 800] ------- [18:255 1:255 253 1] 3 [0 2] [1 2 3 1->18] [0 0 0 0->0]
s 15.062861662 _18_ RTR  --- 12 DSR 52 [0 0 0 0] ------- [18:255 1:255 254 7] 3 [0 2] [1 2 3 1->18] [0 0 0 0->0]
r 15.064139042 _8_ RTR  --- 9 DSR 60 [13a 8 e 800] ------- [18:255 1:255 253 8] 4 [0 2] [1 2 4 1->18] [0 0 0 0->0]
f 15.064139042 _8_ RTR  --- 9 DSR 60 [13a 8 e 800] ------- [18:255 1:255 252 1] 4 [0 2] [1 2 4 1->18] [0 0 0 0->0]
r 15.066116376 _8_ RTR  --- 10 DSR 60 [13a 8 9 800] ------- [18:255 1:255 253 8] 4 [0 2] [1 2 4 1->18] [0 0 0 0->0]
f 15.066116376 _8_ RTR  --- 10 DSR 60 [13a 8 9 800] ------- [18:255 1:255 252 1] 4 [0 2] [1 2 4 1->18] [0 0 0 0->0]
s 15.066511609 _18_ RTR  --- 15 DSR 52 [0 0 0 0] ------- [18:255 1:255 254 11] 3 [0 2] [1 2 3 1->18] [0 0 0 0->0]
s 15.067139641 _18_ RTR  --- 13 DSR 60 [0 0 0 0] ------- [18:255 1:255 254 17] 4 [0 2] [1 2 4 1->18] [0 0 0 0->0]
r 15.068194612 _1_ RTR  --- 9 DSR 60 [13a 1 8 800] ------- [18:255 1:255 252 1] 4 [0 2] [1 2 4 1->18] [0 0 0 0->0]
SFESTs 15.068194612 _1_ 2 [1 -> 18] 1(1) to 8 [1 |8 14 18 ]
s 15.068194612 _1_ RTR  --- 2 tcp 84 [0 0 0 0] ------- [1:0 18:0 32 8] [0 0] 0 0
r 15.069361254 _5_ RTR  --- 16 DSR 32 [0 ffffffff 0 800] ------- [0:255 19:255 32 0] 1 [1 2] [0 2 0 0->16] [0 0 0 0->0]
r 15.069361254 _1_ RTR  --- 16 DSR 32 [0 ffffffff 0 800] ------- [0:255 19:255 32 0] 1 [1 2] [0 2 0 0->16] [0 0 0 0->0]
r 15.069361392 _6_ RTR  --- 16 DSR 32 [0 ffffffff 0 800] ------- [0:255 19:255 32 0] 1 [1 2] [0 2 0 0->16] [0 0 0 0->0]