n -t * -s 0  -x 100 -y 100 -Z 0 -z 30  -v circle -c black
n -t * -s 1  -x 200 -y 100 -Z 0 -z 30  -v circle -c black
n -t * -s 2  -x 300 -y 100 -Z 0 -z 30  -v circle -c black
n -t * -s 3  -x 400 -y 100 -Z 0 -z 30  -v circle -c black
n -t * -s 4  -x 500 -y 100 -Z 0 -z 30  -v circle -c black
n -t * -s 5  -x 100 -y 200 -Z 0 -z 30  -v circle -c black
n -t * -s 6  -x 200 -y 200 -Z 0 -z 30  -v circle -c black
n -t * -s 7  -x 300 -y 200 -Z 0 -z 30  -v circle -c black
n -t * -s 8  -x 400 -y 200 -Z 0 -z 30  -v circle -c black
n -t * -s 9  -x 500 -y 200 -Z 0 -z 30  -v circle -c black
n -t * -s 10  -x 100 -y 300 -Z 0 -z 30  -v circle -c black
n -t * -s 11  -x 200 -y 300 -Z 0 -z 30  -v circle -c black
n -t * -s 12  -x 300 -y 300 -Z 0 -z 30  -v circle -c black
n -t * -s 13  -x 400 -y 300 -Z 0 -z 30  -v circle -c black
n -t * -s 14  -x 500 -y 300 -Z 0 -z 30  -v circle -c black
n -t * -s 15  -x 100 -y 400 -Z 0 -z 30  -v circle -c black
n -t * -s 16  -x 200 -y 400 -Z 0 -z 30  -v circle -c black
n -t * -s 17  -x 300 -y 400 -Z 0 -z 30  -v circle -c black
n -t * -s 18  -x 400 -y 400 -Z 0 -z 30  -v circle -c black
n -t * -s 19  -x 500 -y 400 -Z 0 -z 30  -v circle -c black
V -t * -v 1.0a5 -a 0
W -t * -x 500 -y 500
A -t * -n 1 -p 0 -o 0xffffffff -c 31 -a 1
A -t * -h 1 -m 2147483647 -s 0
+ -t 15.000000000 -s 0 -d -1 -p tcp -e 40 -c 2 -a 0 -i 0 -k AGT 
- -t 15.000000000 -s 0 -d -1 -p tcp -e 40 -c 2 -a 0 -i 0 -k AGT
h -t 15.000000000 -s 0 -d -1 -p tcp -e 40 -c 2 -a 0 -i 0 -k AGT
+ -t 15.000000000 -s 1 -d -1 -p tcp -e 40 -c 2 -a 0 -i 2 -k AGT 
- -t 15.000000000 -s 1 -d -1 -p tcp -e 40 -c 2 -a 0 -i 2 -k AGT
h -t 15.000000000 -s 1 -d -1 -p tcp -e 40 -c 2 -a 0 -i 2 -k AGT
+ -t 15.000206779 -s 1 -d -1 -p DSR -e 32 -c 2 -a 0 -i 3 -k RTR 
- -t 15.000206779 -s 1 -d -1 -p DSR -e 32 -c 2 -a 0 -i 3 -k RTR
h -t 15.000206779 -s 1 -d -1 -p DSR -e 32 -c 2 -a 0 -i 3 -k RTR
+ -t 15.009488615 -s 0 -d -1 -p DSR -e 32 -c 2 -a 0 -i 1 -k RTR 
- -t 15.009488615 -s 0 -d -1 -p DSR -e 32 -c 2 -a 0 -i 1 -k RTR
h -t 15.009488615 -s 0 -d -1 -p DSR -e 32 -c 2 -a 0 -i 1 -k RTR
+ -t 15.034999174 -s 1 -d -1 -p DSR -e 32 -c 2 -a 0 -i 5 -k RTR 
- -t 15.034999174 -s 1 -d -1 -p DSR -e 32 -c 2 -a 0 -i 5 -k RTR
h -t 15.034999174 -s 1 -d -1 -p DSR -e 32 -c 2 -a 0 -i 5 -k RTR
+ -t 15.038318159 -s 8 -d -1 -p DSR -e 48 -c 2 -a 0 -i 5 -k RTR 
- -t 15.038318159 -s 8 -d -1 -p DSR -e 48 -c 2 -a 0 -i 5 -k RTR
h -t 15.038318159 -s 8 -d -1 -p DSR -e 48 -c 2 -a 0 -i 5 -k RTR
+ -t 15.039462454 -s 10 -d -1 -p DSR -e 48 -c 2 -a 0 -i 5 -k RTR 
- -t 15.039462454 -s 10 -d -1 -p DSR -e 48 -c 2 -a 0 -i 5 -k RTR
h -t 15.039462454 -s 10 -d -1 -p DSR -e 48 -c 2 -a 0 -i 5 -k RTR
+ -t 15.039660469 -s 3 -d -1 -p DSR -e 48 -c 2 -a 0 -i 5 -k RTR 
- -t 15.039660469 -s 3 -d -1 -p DSR -e 48 -c 2 -a 0 -i 5 -k RTR
h -t 15.039660469 -s 3 -d -1 -p DSR -e 48 -c 2 -a 0 -i 5 -k RTR
+ -t 15.039741719 -s 13 -d -1 -p DSR -e 68 -c 2 -a 0 -i 5 -k RTR 
- -t 15.039741719 -s 13 -d -1 -p DSR -e 68 -c 2 -a 0 -i 5 -k RTR
h -t 15.039741719 -s 13 -d -1 -p DSR -e 68 -c 2 -a 0 -i 5 -k RTR
+ -t 15.039907129 -s 6 -d -1 -p DSR -e 48 -c 2 -a 0 -i 5 -k RTR 
- -t 15.039907129 -s 6 -d -1 -p DSR -e 48 -c 2 -a 0 -i 5 -k RTR
h -t 15.039907129 -s 6 -d -1 -p DSR -e 48 -c 2 -a 0 -i 5 -k RTR
+ -t 15.040424865 -s 19 -d -1 -p DSR -e 68 -c 2 -a 0 -i 5 -k RTR 
- -t 15.040424865 -s 19 -d -1 -p DSR -e 68 -c 2 -a 0 -i 5 -k RTR
h -t 15.040424865 -s 19 -d -1 -p DSR -e 68 -c 2 -a 0 -i 5 -k RTR
+ -t 15.040661250 -s 14 -d -1 -p DSR -e 68 -c 2 -a 0 -i 5 -k RTR 
- -t 15.040661250 -s 14 -d -1 -p DSR -e 68 -c 2 -a 0 -i 5 -k RTR
h -t 15.040661250 -s 14 -d -1 -p DSR -e 68 -c 2 -a 0 -i 5 -k RTR
+ -t 15.042688642 -s 11 -d -1 -p DSR -e 48 -c 2 -a 0 -i 5 -k RTR 
- -t 15.042688642 -s 11 -d -1 -p DSR -e 48 -c 2 -a 0 -i 5 -k RTR
h -t 15.042688642 -s 11 -d -1 -p DSR -e 48 -c 2 -a 0 -i 5 -k RTR
+ -t 15.042789262 -s 12 -d -1 -p DSR -e 48 -c 2 -a 0 -i 5 -k RTR 
- -t 15.042789262 -s 12 -d -1 -p DSR -e 48 -c 2 -a 0 -i 5 -k RTR
h -t 15.042789262 -s 12 -d -1 -p DSR -e 48 -c 2 -a 0 -i 5 -k RTR
+ -t 15.042795291 -s 5 -d -1 -p DSR -e 48 -c 2 -a 0 -i 5 -k RTR 
- -t 15.042795291 -s 5 -d -1 -p DSR -e 48 -c 2 -a 0 -i 5 -k RTR
h -t 15.042795291 -s 5 -d -1 -p DSR -e 48 -c 2 -a 0 -i 5 -k RTR
+ -t 15.043455948 -s 4 -d -1 -p DSR -e 68 -c 2 -a 0 -i 5 -k RTR 
- -t 15.043455948 -s 4 -d -1 -p DSR -e 68 -c 2 -a 0 -i 5 -k RTR
h -t 15.043455948 -s 4 -d -1 -p DSR -e 68 -c 2 -a 0 -i 5 -k RTR
+ -t 15.044376591 -s 9 -d -1 -p DSR -e 68 -c 2 -a 0 -i 5 -k RTR 
- -t 15.044376591 -s 9 -d -1 -p DSR -e 68 -c 2 -a 0 -i 5 -k RTR
h -t 15.044376591 -s 9 -d -1 -p DSR -e 68 -c 2 -a 0 -i 5 -k RTR
+ -t 15.044699720 -s 2 -d -1 -p DSR -e 48 -c 2 -a 0 -i 5 -k RTR 
- -t 15.044699720 -s 2 -d -1 -p DSR -e 48 -c 2 -a 0 -i 5 -k RTR
h -t 15.044699720 -s 2 -d -1 -p DSR -e 48 -c 2 -a 0 -i 5 -k RTR
+ -t 15.045004671 -s 0 -d -1 -p DSR -e 48 -c 2 -a 0 -i 5 -k RTR 
- -t 15.045004671 -s 0 -d -1 -p DSR -e 48 -c 2 -a 0 -i 5 -k RTR
h -t 15.045004671 -s 0 -d -1 -p DSR -e 48 -c 2 -a 0 -i 5 -k RTR
+ -t 15.045406279 -s 7 -d -1 -p DSR -e 48 -c 2 -a 0 -i 5 -k RTR 
- -t 15.045406279 -s 7 -d -1 -p DSR -e 48 -c 2 -a 0 -i 5 -k RTR
h -t 15.045406279 -s 7 -d -1 -p DSR -e 48 -c 2 -a 0 -i 5 -k RTR
+ -t 15.046794487 -s 17 -d -1 -p DSR -e 68 -c 2 -a 0 -i 5 -k RTR 
- -t 15.046794487 -s 17 -d -1 -p DSR -e 68 -c 2 -a 0 -i 5 -k RTR
h -t 15.046794487 -s 17 -d -1 -p DSR -e 68 -c 2 -a 0 -i 5 -k RTR
+ -t 15.046996441 -s 15 -d -1 -p DSR -e 68 -c 2 -a 0 -i 5 -k RTR 
- -t 15.046996441 -s 15 -d -1 -p DSR -e 68 -c 2 -a 0 -i 5 -k RTR
h -t 15.046996441 -s 15 -d -1 -p DSR -e 68 -c 2 -a 0 -i 5 -k RTR
+ -t 15.047600115 -s 16 -d -1 -p DSR -e 68 -c 2 -a 0 -i 5 -k RTR 
- -t 15.047600115 -s 16 -d -1 -p DSR -e 68 -c 2 -a 0 -i 5 -k RTR
h -t 15.047600115 -s 16 -d -1 -p DSR -e 68 -c 2 -a 0 -i 5 -k RTR
+ -t 15.048350385 -s 18 -d 9 -p DSR -e 60 -c 2 -a 0 -i 10 -k RTR 
- -t 15.048350385 -s 18 -d 9 -p DSR -e 60 -c 2 -a 0 -i 10 -k RTR
h -t 15.048350385 -s 18 -d 9 -p DSR -e 60 -c 2 -a 0 -i 10 -k RTR
+ -t 15.048587851 -s 18 -d 13 -p DSR -e 60 -c 2 -a 0 -i 7 -k RTR 
- -t 15.048587851 -s 18 -d 13 -p DSR -e 60 -c 2 -a 0 -i 7 -k RTR
h -t 15.048587851 -s 18 -d 13 -p DSR -e 60 -c 2 -a 0 -i 7 -k RTR
+ -t 15.049567242 -s 18 -d 8 -p DSR -e 52 -c 2 -a 0 -i 6 -k RTR 
- -t 15.049567242 -s 18 -d 8 -p DSR -e 52 -c 2 -a 0 -i 6 -k RTR
h -t 15.049567242 -s 18 -d 8 -p DSR -e 52 -c 2 -a 0 -i 6 -k RTR
+ -t 15.050121062 -s 18 -d 19 -p DSR -e 60 -c 2 -a 0 -i 8 -k RTR 
- -t 15.050121062 -s 18 -d 19 -p DSR -e 60 -c 2 -a 0 -i 8 -k RTR
h -t 15.050121062 -s 18 -d 19 -p DSR -e 60 -c 2 -a 0 -i 8 -k RTR
+ -t 15.053318966 -s 18 -d 12 -p DSR -e 52 -c 2 -a 0 -i 11 -k RTR 
- -t 15.053318966 -s 18 -d 12 -p DSR -e 52 -c 2 -a 0 -i 11 -k RTR
h -t 15.053318966 -s 18 -d 12 -p DSR -e 52 -c 2 -a 0 -i 11 -k RTR
+ -t 15.053617775 -s 18 -d 14 -p DSR -e 60 -c 2 -a 0 -i 9 -k RTR 
- -t 15.053617775 -s 18 -d 14 -p DSR -e 60 -c 2 -a 0 -i 9 -k RTR
h -t 15.053617775 -s 18 -d 14 -p DSR -e 60 -c 2 -a 0 -i 9 -k RTR
+ -t 15.054517230 -s 9 -d 8 -p DSR -e 60 -c 2 -a 0 -i 10 -k RTR 
- -t 15.054517230 -s 9 -d 8 -p DSR -e 60 -c 2 -a 0 -i 10 -k RTR
h -t 15.054517230 -s 9 -d 8 -p DSR -e 60 -c 2 -a 0 -i 10 -k RTR
+ -t 15.056715390 -s 14 -d 8 -p DSR -e 60 -c 2 -a 0 -i 9 -k RTR 
- -t 15.056715390 -s 14 -d 8 -p DSR -e 60 -c 2 -a 0 -i 9 -k RTR
h -t 15.056715390 -s 14 -d 8 -p DSR -e 60 -c 2 -a 0 -i 9 -k RTR
+ -t 15.061070350 -s 0 -d -1 -p DSR -e 32 -c 2 -a 0 -i 16 -k RTR 
- -t 15.061070350 -s 0 -d -1 -p DSR -e 32 -c 2 -a 0 -i 16 -k RTR
h -t 15.061070350 -s 0 -d -1 -p DSR -e 32 -c 2 -a 0 -i 16 -k RTR
+ -t 15.061809361 -s 18 -d 16 -p DSR -e 60 -c 2 -a 0 -i 14 -k RTR 
- -t 15.061809361 -s 18 -d 16 -p DSR -e 60 -c 2 -a 0 -i 14 -k RTR
h -t 15.061809361 -s 18 -d 16 -p DSR -e 60 -c 2 -a 0 -i 14 -k RTR
+ -t 15.062100961 -s 12 -d 1 -p DSR -e 52 -c 2 -a 0 -i 11 -k RTR 
- -t 15.062100961 -s 12 -d 1 -p DSR -e 52 -c 2 -a 0 -i 11 -k RTR
h -t 15.062100961 -s 12 -d 1 -p DSR -e 52 -c 2 -a 0 -i 11 -k RTR
+ -t 15.062861662 -s 18 -d 7 -p DSR -e 52 -c 2 -a 0 -i 12 -k RTR 
- -t 15.062861662 -s 18 -d 7 -p DSR -e 52 -c 2 -a 0 -i 12 -k RTR
h -t 15.062861662 -s 18 -d 7 -p DSR -e 52 -c 2 -a 0 -i 12 -k RTR
+ -t 15.064139042 -s 8 -d 1 -p DSR -e 60 -c 2 -a 0 -i 9 -k RTR 
- -t 15.064139042 -s 8 -d 1 -p DSR -e 60 -c 2 -a 0 -i 9 -k RTR
h -t 15.064139042 -s 8 -d 1 -p DSR -e 60 -c 2 -a 0 -i 9 -k RTR
+ -t 15.066116376 -s 8 -d 1 -p DSR -e 60 -c 2 -a 0 -i 10 -k RTR 
- -t 15.066116376 -s 8 -d 1 -p DSR -e 60 -c 2 -a 0 -i 10 -k RTR
h -t 15.066116376 -s 8 -d 1 -p DSR -e 60 -c 2 -a 0 -i 10 -k RTR
+ -t 15.066511609 -s 18 -d 11 -p DSR -e 52 -c 2 -a 0 -i 15 -k RTR 
- -t 15.066511609 -s 18 -d 11 -p DSR -e 52 -c 2 -a 0 -i 15 -k RTR
h -t 15.066511609 -s 18 -d 11 -p DSR -e 52 -c 2 -a 0 -i 15 -k RTR
+ -t 15.067139641 -s 18 -d 17 -p DSR -e 60 -c 2 -a 0 -i 13 -k RTR 
- -t 15.067139641 -s 18 -d 17 -p DSR -e 60 -c 2 -a 0 -i 13 -k RTR
h -t 15.067139641 -s 18 -d 17 -p DSR -e 60 -c 2 -a 0 -i 13 -k RTR
+ -t 15.068194612 -s 1 -d 8 -p tcp -e 84 -c 2 -a 0 -i 2 -k RTR 
- -t 15.068194612 -s 1 -d 8 -p tcp -e 84 -c 2 -a 0 -i 2 -k RTR
h -t 15.068194612 -s 1 -d 8 -p tcp -e 84 -c 2 -a 0 -i 2 -k RTR
+ -t 15.069944640 -s 7 -d -1 -p DSR -e 48 -c 2 -a 0 -i 16 -k RTR 
- -t 15.069944640 -s 7 -d -1 -p DSR -e 48 -c 2 -a 0 -i 16 -k RTR
h -t 15.069944640 -s 7 -d -1 -p DSR -e 48 -c 2 -a 0 -i 16 -k RTR
+ -t 15.071197490 -s 8 -d 14 -p tcp -e 84 -c 2 -a 0 -i 2 -k RTR 
- -t 15.071197490 -s 8 -d 14 -p tcp -e 84 -c 2 -a 0 -i 2 -k RTR
h -t 15.071197490 -s 8 -d 14 -p tcp -e 84 -c 2 -a 0 -i 2 -k RTR
+ -t 15.073803302 -s 2 -d -1 -p DSR -e 48 -c 2 -a 0 -i 16 -k RTR 
- -t 15.073803302 -s 2 -d -1 -p DSR -e 48 -c 2 -a 0 -i 16 -k RTR
h -t 15.073803302 -s 2 -d -1 -p DSR -e 48 -c 2 -a 0 -i 16 -k RTR
+ -t 15.074437414 -s 18 -d 7 -p DSR -e 56 -c 2 -a 0 -i 17 -k RTR 
- -t 15.074437414 -s 18 -d 7 -p DSR -e 56 -c 2 -a 0 -i 17 -k RTR
h -t 15.074437414 -s 18 -d 7 -p DSR -e 56 -c 2 -a 0 -i 17 -k RTR
+ -t 15.074601921 -s 14 -d -1 -p DSR -e 68 -c 2 -a 0 -i 16 -k RTR 
- -t 15.074601921 -s 14 -d -1 -p DSR -e 68 -c 2 -a 0 -i 16 -k RTR
h -t 15.074601921 -s 14 -d -1 -p DSR -e 68 -c 2 -a 0 -i 16 -k RTR
+ -t 15.074641193 -s 6 -d -1 -p DSR -e 48 -c 2 -a 0 -i 16 -k RTR 
- -t 15.074641193 -s 6 -d -1 -p DSR -e 48 -c 2 -a 0 -i 16 -k RTR
h -t 15.074641193 -s 6 -d -1 -p DSR -e 48 -c 2 -a 0 -i 16 -k RTR
+ -t 15.074677265 -s 11 -d -1 -p DSR -e 48 -c 2 -a 0 -i 16 -k RTR 
- -t 15.074677265 -s 11 -d -1 -p DSR -e 48 -c 2 -a 0 -i 16 -k RTR
h -t 15.074677265 -s 11 -d -1 -p DSR -e 48 -c 2 -a 0 -i 16 -k RTR
+ -t 15.074725549 -s 13 -d -1 -p DSR -e 68 -c 2 -a 0 -i 16 -k RTR 
- -t 15.074725549 -s 13 -d -1 -p DSR -e 68 -c 2 -a 0 -i 16 -k RTR
h -t 15.074725549 -s 13 -d -1 -p DSR -e 68 -c 2 -a 0 -i 16 -k RTR
+ -t 15.075195057 -s 10 -d -1 -p DSR -e 48 -c 2 -a 0 -i 16 -k RTR 
- -t 15.075195057 -s 10 -d -1 -p DSR -e 48 -c 2 -a 0 -i 16 -k RTR
h -t 15.075195057 -s 10 -d -1 -p DSR -e 48 -c 2 -a 0 -i 16 -k RTR
+ -t 15.075843941 -s 16 -d -1 -p DSR -e 68 -c 2 -a 0 -i 16 -k RTR 
- -t 15.075843941 -s 16 -d -1 -p DSR -e 68 -c 2 -a 0 -i 16 -k RTR
h -t 15.075843941 -s 16 -d -1 -p DSR -e 68 -c 2 -a 0 -i 16 -k RTR
+ -t 15.075906692 -s 9 -d -1 -p DSR -e 68 -c 2 -a 0 -i 16 -k RTR 
- -t 15.075906692 -s 9 -d -1 -p DSR -e 68 -c 2 -a 0 -i 16 -k RTR
h -t 15.075906692 -s 9 -d -1 -p DSR -e 68 -c 2 -a 0 -i 16 -k RTR
+ -t 15.077584207 -s 17 -d -1 -p DSR -e 68 -c 2 -a 0 -i 16 -k RTR 
- -t 15.077584207 -s 17 -d -1 -p DSR -e 68 -c 2 -a 0 -i 16 -k RTR
h -t 15.077584207 -s 17 -d -1 -p DSR -e 68 -c 2 -a 0 -i 16 -k RTR
+ -t 15.078286593 -s 18 -d 8 -p DSR -e 52 -c 2 -a 0 -i 18 -k RTR 
- -t 15.078286593 -s 18 -d 8 -p DSR -e 52 -c 2 -a 0 -i 18 -k RTR
h -t 15.078286593 -s 18 -d 8 -p DSR -e 52 -c 2 -a 0 -i 18 -k RTR
+ -t 15.078311398 -s 14 -d 18 -p tcp -e 84 -c 2 -a 0 -i 2 -k RTR 
- -t 15.078311398 -s 14 -d 18 -p tcp -e 84 -c 2 -a 0 -i 2 -k RTR
h -t 15.078311398 -s 14 -d 18 -p tcp -e 84 -c 2 -a 0 -i 2 -k RTR
+ -t 15.078957994 -s 5 -d -1 -p DSR -e 48 -c 2 -a 0 -i 16 -k RTR 
- -t 15.078957994 -s 5 -d -1 -p DSR -e 48 -c 2 -a 0 -i 16 -k RTR
h -t 15.078957994 -s 5 -d -1 -p DSR -e 48 -c 2 -a 0 -i 16 -k RTR
+ -t 15.078978017 -s 1 -d -1 -p DSR -e 48 -c 2 -a 0 -i 16 -k RTR 
- -t 15.078978017 -s 1 -d -1 -p DSR -e 48 -c 2 -a 0 -i 16 -k RTR
h -t 15.078978017 -s 1 -d -1 -p DSR -e 48 -c 2 -a 0 -i 16 -k RTR
+ -t 15.078987664 -s 3 -d -1 -p DSR -e 68 -c 2 -a 0 -i 16 -k RTR 
- -t 15.078987664 -s 3 -d -1 -p DSR -e 68 -c 2 -a 0 -i 16 -k RTR
h -t 15.078987664 -s 3 -d -1 -p DSR -e 68 -c 2 -a 0 -i 16 -k RTR
+ -t 15.079976522 -s 19 -d 14 -p DSR -e 60 -c 2 -a 0 -i 19 -k RTR 
- -t 15.079976522 -s 19 -d 14 -p DSR -e 60 -c 2 -a 0 -i 19 -k RTR
h -t 15.079976522 -s 19 -d 14 -p DSR -e 60 -c 2 -a 0 -i 19 -k RTR
+ -t 15.081339869 -s 16 -d 6 -p DSR -e 60 -c 2 -a 0 -i 14 -k RTR 
- -t 15.081339869 -s 16 -d 6 -p DSR -e 60 -c 2 -a 0 -i 14 -k RTR
h -t 15.081339869 -s 16 -d 6 -p DSR -e 60 -c 2 -a 0 -i 14 -k RTR
+ -t 15.081413982 -s 4 -d -1 -p DSR -e 68 -c 2 -a 0 -i 16 -k RTR 
- -t 15.081413982 -s 4 -d -1 -p DSR -e 68 -c 2 -a 0 -i 16 -k RTR
h -t 15.081413982 -s 4 -d -1 -p DSR -e 68 -c 2 -a 0 -i 16 -k RTR
+ -t 15.082393579 -s 8 -d -1 -p DSR -e 68 -c 2 -a 0 -i 16 -k RTR 
- -t 15.082393579 -s 8 -d -1 -p DSR -e 68 -c 2 -a 0 -i 16 -k RTR
h -t 15.082393579 -s 8 -d -1 -p DSR -e 68 -c 2 -a 0 -i 16 -k RTR
+ -t 15.083391504 -s 12 -d -1 -p DSR -e 68 -c 2 -a 0 -i 16 -k RTR 
- -t 15.083391504 -s 12 -d -1 -p DSR -e 68 -c 2 -a 0 -i 16 -k RTR
h -t 15.083391504 -s 12 -d -1 -p DSR -e 68 -c 2 -a 0 -i 16 -k RTR
+ -t 15.084679380 -s 15 -d -1 -p DSR -e 68 -c 2 -a 0 -i 16 -k RTR 
- -t 15.084679380 -s 15 -d -1 -p DSR -e 68 -c 2 -a 0 -i 16 -k RTR
h -t 15.084679380 -s 15 -d -1 -p DSR -e 68 -c 2 -a 0 -i 16 -k RTR
+ -t 15.085285335 -s 8 -d 1 -p DSR -e 52 -c 2 -a 0 -i 18 -k RTR 
- -t 15.085285335 -s 8 -d 1 -p DSR -e 52 -c 2 -a 0 -i 18 -k RTR
h -t 15.085285335 -s 8 -d 1 -p DSR -e 52 -c 2 -a 0 -i 18 -k RTR
+ -t 15.088949600 -s 19 -d 17 -p DSR -e 60 -c 2 -a 0 -i 20 -k RTR 
- -t 15.088949600 -s 19 -d 17 -p DSR -e 60 -c 2 -a 0 -i 20 -k RTR
h -t 15.088949600 -s 19 -d 17 -p DSR -e 60 -c 2 -a 0 -i 20 -k RTR
+ -t 15.089005538 -s 19 -d 13 -p DSR -e 60 -c 2 -a 0 -i 21 -k RTR 
- -t 15.089005538 -s 19 -d 13 -p DSR -e 60 -c 2 -a 0 -i 21 -k RTR
h -t 15.089005538 -s 19 -d 13 -p DSR -e 60 -c 2 -a 0 -i 21 -k RTR
+ -t 15.098333199 -s 19 -d 12 -p DSR -e 60 -c 2 -a 0 -i 22 -k RTR 
- -t 15.098333199 -s 19 -d 12 -p DSR -e 60 -c 2 -a 0 -i 22 -k RTR
h -t 15.098333199 -s 19 -d 12 -p DSR -e 60 -c 2 -a 0 -i 22 -k RTR
r -t 15.098429728 -s 18 -d 18 -p tcp -e 40 -c 2 -a 0 -i 2 -k AGT
+ -t 15.098429728 -s 18 -d -1 -p ack -e 40 -c 2 -a 0 -i 23 -k AGT 
- -t 15.098429728 -s 18 -d -1 -p ack -e 40 -c 2 -a 0 -i 23 -k AGT
h -t 15.098429728 -s 18 -d -1 -p ack -e 40 -c 2 -a 0 -i 23 -k AGT
+ -t 15.098429728 -s 18 -d 8 -p ack -e 80 -c 2 -a 0 -i 23 -k RTR 
- -t 15.098429728 -s 18 -d 8 -p ack -e 80 -c 2 -a 0 -i 23 -k RTR
h -t 15.098429728 -s 18 -d 8 -p ack -e 80 -c 2 -a 0 -i 23 -k RTR
+ -t 15.100487061 -s 14 -d 7 -p DSR -e 60 -c 2 -a 0 -i 19 -k RTR 
- -t 15.100487061 -s 14 -d 7 -p DSR -e 60 -c 2 -a 0 -i 19 -k RTR
h -t 15.100487061 -s 14 -d 7 -p DSR -e 60 -c 2 -a 0 -i 19 -k RTR
+ -t 15.105955156 -s 6 -d 1 -p DSR -e 60 -c 2 -a 0 -i 14 -k RTR 
- -t 15.105955156 -s 6 -d 1 -p DSR -e 60 -c 2 -a 0 -i 14 -k RTR
h -t 15.105955156 -s 6 -d 1 -p DSR -e 60 -c 2 -a 0 -i 14 -k RTR
+ -t 15.108318446 -s 7 -d 0 -p DSR -e 60 -c 2 -a 0 -i 19 -k RTR 
- -t 15.108318446 -s 7 -d 0 -p DSR -e 60 -c 2 -a 0 -i 19 -k RTR
h -t 15.108318446 -s 7 -d 0 -p DSR -e 60 -c 2 -a 0 -i 19 -k RTR
+ -t 15.110245428 -s 7 -d 0 -p DSR -e 56 -c 2 -a 0 -i 17 -k RTR 
- -t 15.110245428 -s 7 -d 0 -p DSR -e 56 -c 2 -a 0 -i 17 -k RTR
h -t 15.110245428 -s 7 -d 0 -p DSR -e 56 -c 2 -a 0 -i 17 -k RTR
+ -t 15.112343664 -s 0 -d 7 -p tcp -e 84 -c 2 -a 0 -i 0 -k RTR 
- -t 15.112343664 -s 0 -d 7 -p tcp -e 84 -c 2 -a 0 -i 0 -k RTR
h -t 15.112343664 -s 0 -d 7 -p tcp -e 84 -c 2 -a 0 -i 0 -k RTR
+ -t 15.116551705 -s 7 -d 14 -p tcp -e 84 -c 2 -a 0 -i 0 -k RTR 
- -t 15.116551705 -s 7 -d 14 -p tcp -e 84 -c 2 -a 0 -i 0 -k RTR
h -t 15.116551705 -s 7 -d 14 -p tcp -e 84 -c 2 -a 0 -i 0 -k RTR
+ -t 15.120788922 -s 14 -d 19 -p tcp -e 84 -c 2 -a 0 -i 0 -k RTR 
- -t 15.120788922 -s 14 -d 19 -p tcp -e 84 -c 2 -a 0 -i 0 -k RTR
h -t 15.120788922 -s 14 -d 19 -p tcp -e 84 -c 2 -a 0 -i 0 -k RTR
+ -t 15.122837356 -s 12 -d 7 -p DSR -e 60 -c 2 -a 0 -i 22 -k RTR 
- -t 15.122837356 -s 12 -d 7 -p DSR -e 60 -c 2 -a 0 -i 22 -k RTR
h -t 15.122837356 -s 12 -d 7 -p DSR -e 60 -c 2 -a 0 -i 22 -k RTR
+ -t 15.124834356 -s 7 -d 0 -p DSR -e 60 -c 2 -a 0 -i 22 -k RTR 
- -t 15.124834356 -s 7 -d 0 -p DSR -e 60 -c 2 -a 0 -i 22 -k RTR
h -t 15.124834356 -s 7 -d 0 -p DSR -e 60 -c 2 -a 0 -i 22 -k RTR
+ -t 15.127012101 -s 17 -d 8 -p DSR -e 60 -c 2 -a 0 -i 13 -k RTR 
- -t 15.127012101 -s 17 -d 8 -p DSR -e 60 -c 2 -a 0 -i 13 -k RTR
h -t 15.127012101 -s 17 -d 8 -p DSR -e 60 -c 2 -a 0 -i 13 -k RTR
r -t 15.129201846 -s 19 -d 19 -p tcp -e 40 -c 2 -a 0 -i 0 -k AGT
+ -t 15.129201846 -s 19 -d -1 -p ack -e 40 -c 2 -a 0 -i 24 -k AGT 
- -t 15.129201846 -s 19 -d -1 -p ack -e 40 -c 2 -a 0 -i 24 -k AGT
h -t 15.129201846 -s 19 -d -1 -p ack -e 40 -c 2 -a 0 -i 24 -k AGT
+ -t 15.129201846 -s 19 -d 14 -p ack -e 84 -c 2 -a 0 -i 24 -k RTR 
- -t 15.129201846 -s 19 -d 14 -p ack -e 84 -c 2 -a 0 -i 24 -k RTR
h -t 15.129201846 -s 19 -d 14 -p ack -e 84 -c 2 -a 0 -i 24 -k RTR
+ -t 15.131156416 -s 11 -d 1 -p DSR -e 52 -c 2 -a 0 -i 15 -k RTR 
- -t 15.131156416 -s 11 -d 1 -p DSR -e 52 -c 2 -a 0 -i 15 -k RTR
h -t 15.131156416 -s 11 -d 1 -p DSR -e 52 -c 2 -a 0 -i 15 -k RTR
+ -t 15.138555852 -s 7 -d 1 -p DSR -e 52 -c 2 -a 0 -i 12 -k RTR 
- -t 15.138555852 -s 7 -d 1 -p DSR -e 52 -c 2 -a 0 -i 12 -k RTR
h -t 15.138555852 -s 7 -d 1 -p DSR -e 52 -c 2 -a 0 -i 12 -k RTR
+ -t 15.144278401 -s 13 -d 7 -p DSR -e 60 -c 2 -a 0 -i 21 -k RTR 
- -t 15.144278401 -s 13 -d 7 -p DSR -e 60 -c 2 -a 0 -i 21 -k RTR
h -t 15.144278401 -s 13 -d 7 -p DSR -e 60 -c 2 -a 0 -i 21 -k RTR
+ -t 15.146495816 -s 7 -d 0 -p DSR -e 60 -c 2 -a 0 -i 21 -k RTR 
- -t 15.146495816 -s 7 -d 0 -p DSR -e 60 -c 2 -a 0 -i 21 -k RTR
h -t 15.146495816 -s 7 -d 0 -p DSR -e 60 -c 2 -a 0 -i 21 -k RTR
+ -t 15.150997718 -s 17 -d 7 -p DSR -e 60 -c 2 -a 0 -i 20 -k RTR 
- -t 15.150997718 -s 17 -d 7 -p DSR -e 60 -c 2 -a 0 -i 20 -k RTR
h -t 15.150997718 -s 17 -d 7 -p DSR -e 60 -c 2 -a 0 -i 20 -k RTR
+ -t 15.153035052 -s 19 -d 8 -p DSR -e 60 -c 2 -a 0 -i 8 -k RTR 
- -t 15.153035052 -s 19 -d 8 -p DSR -e 60 -c 2 -a 0 -i 8 -k RTR
h -t 15.153035052 -s 19 -d 8 -p DSR -e 60 -c 2 -a 0 -i 8 -k RTR
+ -t 15.155129385 -s 8 -d 1 -p DSR -e 52 -c 2 -a 0 -i 6 -k RTR 
- -t 15.155129385 -s 8 -d 1 -p DSR -e 52 -c 2 -a 0 -i 6 -k RTR
h -t 15.155129385 -s 8 -d 1 -p DSR -e 52 -c 2 -a 0 -i 6 -k RTR
+ -t 15.157319130 -s 14 -d 7 -p ack -e 84 -c 2 -a 0 -i 24 -k RTR 
- -t 15.157319130 -s 14 -d 7 -p ack -e 84 -c 2 -a 0 -i 24 -k RTR
h -t 15.157319130 -s 14 -d 7 -p ack -e 84 -c 2 -a 0 -i 24 -k RTR
+ -t 15.159469366 -s 7 -d 0 -p ack -e 84 -c 2 -a 0 -i 24 -k RTR 
- -t 15.159469366 -s 7 -d 0 -p ack -e 84 -c 2 -a 0 -i 24 -k RTR
h -t 15.159469366 -s 7 -d 0 -p ack -e 84 -c 2 -a 0 -i 24 -k RTR
+ -t 15.163787586 -s 8 -d 1 -p DSR -e 60 -c 2 -a 0 -i 8 -k RTR 
- -t 15.163787586 -s 8 -d 1 -p DSR -e 60 -c 2 -a 0 -i 8 -k RTR
h -t 15.163787586 -s 8 -d 1 -p DSR -e 60 -c 2 -a 0 -i 8 -k RTR
+ -t 15.165745253 -s 13 -d 8 -p DSR -e 60 -c 2 -a 0 -i 7 -k RTR 
- -t 15.165745253 -s 13 -d 8 -p DSR -e 60 -c 2 -a 0 -i 7 -k RTR
h -t 15.165745253 -s 13 -d 8 -p DSR -e 60 -c 2 -a 0 -i 7 -k RTR
r -t 15.167915960 -s 0 -d 0 -p ack -e 40 -c 2 -a 0 -i 24 -k AGT
+ -t 15.167915960 -s 0 -d -1 -p tcp -e 1040 -c 2 -a 0 -i 25 -k AGT 
- -t 15.167915960 -s 0 -d -1 -p tcp -e 1040 -c 2 -a 0 -i 25 -k AGT
h -t 15.167915960 -s 0 -d -1 -p tcp -e 1040 -c 2 -a 0 -i 25 -k AGT
+ -t 15.167915960 -s 0 -d -1 -p tcp -e 1040 -c 2 -a 0 -i 26 -k AGT 
- -t 15.167915960 -s 0 -d -1 -p tcp -e 1040 -c 2 -a 0 -i 26 -k AGT
h -t 15.167915960 -s 0 -d -1 -p tcp -e 1040 -c 2 -a 0 -i 26 -k AGT
+ -t 15.167915960 -s 0 -d 7 -p tcp -e 1084 -c 2 -a 0 -i 25 -k RTR 
- -t 15.167915960 -s 0 -d 7 -p tcp -e 1084 -c 2 -a 0 -i 25 -k RTR
h -t 15.167915960 -s 0 -d 7 -p tcp -e 1084 -c 2 -a 0 -i 25 -k RTR
+ -t 15.167915960 -s 0 -d 7 -p tcp -e 1084 -c 2 -a 0 -i 26 -k RTR 
- -t 15.167915960 -s 0 -d 7 -p tcp -e 1084 -c 2 -a 0 -i 26 -k RTR
h -t 15.167915960 -s 0 -d 7 -p tcp -e 1084 -c 2 -a 0 -i 26 -k RTR
+ -t 15.178266196 -s 7 -d 14 -p tcp -e 1084 -c 2 -a 0 -i 25 -k RTR 
- -t 15.178266196 -s 7 -d 14 -p tcp -e 1084 -c 2 -a 0 -i 25 -k RTR
h -t 15.178266196 -s 7 -d 14 -p tcp -e 1084 -c 2 -a 0 -i 25 -k RTR
+ -t 15.190585449 -s 14 -d 19 -p tcp -e 1084 -c 2 -a 0 -i 25 -k RTR 
- -t 15.190585449 -s 14 -d 19 -p tcp -e 1084 -c 2 -a 0 -i 25 -k RTR
h -t 15.190585449 -s 14 -d 19 -p tcp -e 1084 -c 2 -a 0 -i 25 -k RTR
+ -t 15.192723920 -s 8 -d 1 -p ack -e 80 -c 2 -a 0 -i 23 -k RTR 
- -t 15.192723920 -s 8 -d 1 -p ack -e 80 -c 2 -a 0 -i 23 -k RTR
h -t 15.192723920 -s 8 -d 1 -p ack -e 80 -c 2 -a 0 -i 23 -k RTR
r -t 15.202933391 -s 19 -d 19 -p tcp -e 1040 -c 2 -a 0 -i 25 -k AGT
+ -t 15.202933391 -s 19 -d -1 -p ack -e 40 -c 2 -a 0 -i 27 -k AGT 
- -t 15.202933391 -s 19 -d -1 -p ack -e 40 -c 2 -a 0 -i 27 -k AGT
h -t 15.202933391 -s 19 -d -1 -p ack -e 40 -c 2 -a 0 -i 27 -k AGT
+ -t 15.202933391 -s 19 -d 14 -p ack -e 84 -c 2 -a 0 -i 27 -k RTR 
- -t 15.202933391 -s 19 -d 14 -p ack -e 84 -c 2 -a 0 -i 27 -k RTR
h -t 15.202933391 -s 19 -d 14 -p ack -e 84 -c 2 -a 0 -i 27 -k RTR
+ -t 15.206089882 -s 14 -d 7 -p ack -e 84 -c 2 -a 0 -i 27 -k RTR 
- -t 15.206089882 -s 14 -d 7 -p ack -e 84 -c 2 -a 0 -i 27 -k RTR
h -t 15.206089882 -s 14 -d 7 -p ack -e 84 -c 2 -a 0 -i 27 -k RTR
+ -t 15.208400118 -s 7 -d 0 -p ack -e 84 -c 2 -a 0 -i 27 -k RTR 
- -t 15.208400118 -s 7 -d 0 -p ack -e 84 -c 2 -a 0 -i 27 -k RTR
h -t 15.208400118 -s 7 -d 0 -p ack -e 84 -c 2 -a 0 -i 27 -k RTR
r -t 15.210550354 -s 0 -d 0 -p ack -e 40 -c 2 -a 0 -i 27 -k AGT
+ -t 15.210550354 -s 0 -d -1 -p tcp -e 1040 -c 2 -a 0 -i 28 -k AGT 
- -t 15.210550354 -s 0 -d -1 -p tcp -e 1040 -c 2 -a 0 -i 28 -k AGT
h -t 15.210550354 -s 0 -d -1 -p tcp -e 1040 -c 2 -a 0 -i 28 -k AGT
+ -t 15.210550354 -s 0 -d -1 -p tcp -e 1040 -c 2 -a 0 -i 29 -k AGT 
- -t 15.210550354 -s 0 -d -1 -p tcp -e 1040 -c 2 -a 0 -i 29 -k AGT
h -t 15.210550354 -s 0 -d -1 -p tcp -e 1040 -c 2 -a 0 -i 29 -k AGT
+ -t 15.210550354 -s 0 -d 7 -p tcp -e 1060 -c 2 -a 0 -i 28 -k RTR 
- -t 15.210550354 -s 0 -d 7 -p tcp -e 1060 -c 2 -a 0 -i 28 -k RTR
h -t 15.210550354 -s 0 -d 7 -p tcp -e 1060 -c 2 -a 0 -i 28 -k RTR
+ -t 15.210550354 -s 0 -d 7 -p tcp -e 1060 -c 2 -a 0 -i 29 -k RTR 
- -t 15.210550354 -s 0 -d 7 -p tcp -e 1060 -c 2 -a 0 -i 29 -k RTR
h -t 15.210550354 -s 0 -d 7 -p tcp -e 1060 -c 2 -a 0 -i 29 -k RTR
+ -t 15.220780590 -s 7 -d 14 -p tcp -e 1084 -c 2 -a 0 -i 26 -k RTR 
- -t 15.220780590 -s 7 -d 14 -p tcp -e 1084 -c 2 -a 0 -i 26 -k RTR
h -t 15.220780590 -s 7 -d 14 -p tcp -e 1084 -c 2 -a 0 -i 26 -k RTR
+ -t 15.223109283 -s 8 -d 1 -p DSR -e 60 -c 2 -a 0 -i 13 -k RTR 
- -t 15.223109283 -s 8 -d 1 -p DSR -e 60 -c 2 -a 0 -i 13 -k RTR
h -t 15.223109283 -s 8 -d 1 -p DSR -e 60 -c 2 -a 0 -i 13 -k RTR
+ -t 15.233299852 -s 14 -d 19 -p tcp -e 1084 -c 2 -a 0 -i 26 -k RTR 
- -t 15.233299852 -s 14 -d 19 -p tcp -e 1084 -c 2 -a 0 -i 26 -k RTR
h -t 15.233299852 -s 14 -d 19 -p tcp -e 1084 -c 2 -a 0 -i 26 -k RTR
+ -t 15.235258598 -s 7 -d 0 -p DSR -e 60 -c 2 -a 0 -i 20 -k RTR 
- -t 15.235258598 -s 7 -d 0 -p DSR -e 60 -c 2 -a 0 -i 20 -k RTR
h -t 15.235258598 -s 7 -d 0 -p DSR -e 60 -c 2 -a 0 -i 20 -k RTR
+ -t 15.245267369 -s 7 -d 14 -p tcp -e 1060 -c 2 -a 0 -i 28 -k RTR 
- -t 15.245267369 -s 7 -d 14 -p tcp -e 1060 -c 2 -a 0 -i 28 -k RTR
h -t 15.245267369 -s 7 -d 14 -p tcp -e 1060 -c 2 -a 0 -i 28 -k RTR
+ -t 15.255246350 -s 7 -d 14 -p tcp -e 1060 -c 2 -a 0 -i 29 -k RTR 
- -t 15.255246350 -s 7 -d 14 -p tcp -e 1060 -c 2 -a 0 -i 29 -k RTR
h -t 15.255246350 -s 7 -d 14 -p tcp -e 1060 -c 2 -a 0 -i 29 -k RTR
+ -t 15.267463568 -s 14 -d 19 -p tcp -e 1060 -c 2 -a 0 -i 28 -k RTR 
- -t 15.267463568 -s 14 -d 19 -p tcp -e 1060 -c 2 -a 0 -i 28 -k RTR
h -t 15.267463568 -s 14 -d 19 -p tcp -e 1060 -c 2 -a 0 -i 28 -k RTR
+ -t 15.278448609 -s 14 -d 19 -p tcp -e 1060 -c 2 -a 0 -i 29 -k RTR 
- -t 15.278448609 -s 14 -d 19 -p tcp -e 1060 -c 2 -a 0 -i 29 -k RTR
h -t 15.278448609 -s 14 -d 19 -p tcp -e 1060 -c 2 -a 0 -i 29 -k RTR
r -t 15.288657609 -s 19 -d 19 -p tcp -e 1040 -c 2 -a 0 -i 26 -k AGT
+ -t 15.288657609 -s 19 -d -1 -p ack -e 40 -c 2 -a 0 -i 30 -k AGT 
- -t 15.288657609 -s 19 -d -1 -p ack -e 40 -c 2 -a 0 -i 30 -k AGT
h -t 15.288657609 -s 19 -d -1 -p ack -e 40 -c 2 -a 0 -i 30 -k AGT
+ -t 15.288657609 -s 19 -d 14 -p ack -e 84 -c 2 -a 0 -i 30 -k RTR 
- -t 15.288657609 -s 19 -d 14 -p ack -e 84 -c 2 -a 0 -i 30 -k RTR
h -t 15.288657609 -s 19 -d 14 -p ack -e 84 -c 2 -a 0 -i 30 -k RTR
r -t 15.298714942 -s 19 -d 19 -p tcp -e 1040 -c 2 -a 0 -i 28 -k AGT
+ -t 15.298714942 -s 19 -d -1 -p ack -e 40 -c 2 -a 0 -i 31 -k AGT 
- -t 15.298714942 -s 19 -d -1 -p ack -e 40 -c 2 -a 0 -i 31 -k AGT
h -t 15.298714942 -s 19 -d -1 -p ack -e 40 -c 2 -a 0 -i 31 -k AGT
+ -t 15.298714942 -s 19 -d 14 -p ack -e 60 -c 2 -a 0 -i 31 -k RTR 
- -t 15.298714942 -s 19 -d 14 -p ack -e 60 -c 2 -a 0 -i 31 -k RTR
h -t 15.298714942 -s 19 -d 14 -p ack -e 60 -c 2 -a 0 -i 31 -k RTR
r -t 15.308832275 -s 19 -d 19 -p tcp -e 1040 -c 2 -a 0 -i 29 -k AGT
+ -t 15.308832275 -s 19 -d -1 -p ack -e 40 -c 2 -a 0 -i 32 -k AGT 
- -t 15.308832275 -s 19 -d -1 -p ack -e 40 -c 2 -a 0 -i 32 -k AGT
h -t 15.308832275 -s 19 -d -1 -p ack -e 40 -c 2 -a 0 -i 32 -k AGT
+ -t 15.308832275 -s 19 -d 14 -p ack -e 60 -c 2 -a 0 -i 32 -k RTR 
- -t 15.308832275 -s 19 -d 14 -p ack -e 60 -c 2 -a 0 -i 32 -k RTR
h -t 15.308832275 -s 19 -d 14 -p ack -e 60 -c 2 -a 0 -i 32 -k RTR
+ -t 15.311061275 -s 14 -d 7 -p ack -e 84 -c 2 -a 0 -i 30 -k RTR 
- -t 15.311061275 -s 14 -d 7 -p ack -e 84 -c 2 -a 0 -i 30 -k RTR
h -t 15.311061275 -s 14 -d 7 -p ack -e 84 -c 2 -a 0 -i 30 -k RTR
+ -t 15.314731511 -s 7 -d 0 -p ack -e 84 -c 2 -a 0 -i 30 -k RTR 
- -t 15.314731511 -s 7 -d 0 -p ack -e 84 -c 2 -a 0 -i 30 -k RTR
h -t 15.314731511 -s 7 -d 0 -p ack -e 84 -c 2 -a 0 -i 30 -k RTR
+ -t 15.316928983 -s 8 -d 1 -p DSR -e 60 -c 2 -a 0 -i 7 -k RTR 
- -t 15.316928983 -s 8 -d 1 -p DSR -e 60 -c 2 -a 0 -i 7 -k RTR
h -t 15.316928983 -s 8 -d 1 -p DSR -e 60 -c 2 -a 0 -i 7 -k RTR
r -t 15.319279552 -s 0 -d 0 -p ack -e 40 -c 2 -a 0 -i 30 -k AGT
+ -t 15.319279552 -s 0 -d -1 -p tcp -e 1040 -c 2 -a 0 -i 33 -k AGT 
- -t 15.319279552 -s 0 -d -1 -p tcp -e 1040 -c 2 -a 0 -i 33 -k AGT
h -t 15.319279552 -s 0 -d -1 -p tcp -e 1040 -c 2 -a 0 -i 33 -k AGT
+ -t 15.319279552 -s 0 -d -1 -p tcp -e 1040 -c 2 -a 0 -i 34 -k AGT 
- -t 15.319279552 -s 0 -d -1 -p tcp -e 1040 -c 2 -a 0 -i 34 -k AGT
h -t 15.319279552 -s 0 -d -1 -p tcp -e 1040 -c 2 -a 0 -i 34 -k AGT
+ -t 15.319279552 -s 0 -d 7 -p tcp -e 1060 -c 2 -a 0 -i 33 -k RTR 
- -t 15.319279552 -s 0 -d 7 -p tcp -e 1060 -c 2 -a 0 -i 33 -k RTR
h -t 15.319279552 -s 0 -d 7 -p tcp -e 1060 -c 2 -a 0 -i 33 -k RTR
+ -t 15.319279552 -s 0 -d 7 -p tcp -e 1060 -c 2 -a 0 -i 34 -k RTR 
- -t 15.319279552 -s 0 -d 7 -p tcp -e 1060 -c 2 -a 0 -i 34 -k RTR
h -t 15.319279552 -s 0 -d 7 -p tcp -e 1060 -c 2 -a 0 -i 34 -k RTR
+ -t 15.329617788 -s 7 -d 14 -p tcp -e 1060 -c 2 -a 0 -i 33 -k RTR 
- -t 15.329617788 -s 7 -d 14 -p tcp -e 1060 -c 2 -a 0 -i 33 -k RTR
h -t 15.329617788 -s 7 -d 14 -p tcp -e 1060 -c 2 -a 0 -i 33 -k RTR
+ -t 15.339616024 -s 14 -d 19 -p tcp -e 1060 -c 2 -a 0 -i 33 -k RTR 
- -t 15.339616024 -s 14 -d 19 -p tcp -e 1060 -c 2 -a 0 -i 33 -k RTR
h -t 15.339616024 -s 14 -d 19 -p tcp -e 1060 -c 2 -a 0 -i 33 -k RTR
r -t 15.349713024 -s 19 -d 19 -p tcp -e 1040 -c 2 -a 0 -i 33 -k AGT
+ -t 15.349713024 -s 19 -d -1 -p ack -e 40 -c 2 -a 0 -i 35 -k AGT 
- -t 15.349713024 -s 19 -d -1 -p ack -e 40 -c 2 -a 0 -i 35 -k AGT
h -t 15.349713024 -s 19 -d -1 -p ack -e 40 -c 2 -a 0 -i 35 -k AGT
+ -t 15.349713024 -s 19 -d 14 -p ack -e 60 -c 2 -a 0 -i 35 -k RTR 
- -t 15.349713024 -s 19 -d 14 -p ack -e 60 -c 2 -a 0 -i 35 -k RTR
h -t 15.349713024 -s 19 -d 14 -p ack -e 60 -c 2 -a 0 -i 35 -k RTR
r -t 15.352152006 -s 1 -d 1 -p ack -e 40 -c 2 -a 0 -i 23 -k AGT
+ -t 15.352152006 -s 1 -d -1 -p tcp -e 1040 -c 2 -a 0 -i 36 -k AGT 
- -t 15.352152006 -s 1 -d -1 -p tcp -e 1040 -c 2 -a 0 -i 36 -k AGT
h -t 15.352152006 -s 1 -d -1 -p tcp -e 1040 -c 2 -a 0 -i 36 -k AGT
+ -t 15.352152006 -s 1 -d -1 -p tcp -e 1040 -c 2 -a 0 -i 37 -k AGT 
- -t 15.352152006 -s 1 -d -1 -p tcp -e 1040 -c 2 -a 0 -i 37 -k AGT
h -t 15.352152006 -s 1 -d -1 -p tcp -e 1040 -c 2 -a 0 -i 37 -k AGT
+ -t 15.352152006 -s 1 -d 12 -p tcp -e 1080 -c 2 -a 0 -i 36 -k RTR 
- -t 15.352152006 -s 1 -d 12 -p tcp -e 1080 -c 2 -a 0 -i 36 -k RTR
h -t 15.352152006 -s 1 -d 12 -p tcp -e 1080 -c 2 -a 0 -i 36 -k RTR
+ -t 15.352152006 -s 1 -d 12 -p tcp -e 1080 -c 2 -a 0 -i 37 -k RTR 
- -t 15.352152006 -s 1 -d 12 -p tcp -e 1080 -c 2 -a 0 -i 37 -k RTR
h -t 15.352152006 -s 1 -d 12 -p tcp -e 1080 -c 2 -a 0 -i 37 -k RTR
+ -t 15.362560551 -s 7 -d 14 -p tcp -e 1060 -c 2 -a 0 -i 34 -k RTR 
- -t 15.362560551 -s 7 -d 14 -p tcp -e 1060 -c 2 -a 0 -i 34 -k RTR
h -t 15.362560551 -s 7 -d 14 -p tcp -e 1060 -c 2 -a 0 -i 34 -k RTR
+ -t 15.372518787 -s 14 -d 19 -p tcp -e 1060 -c 2 -a 0 -i 34 -k RTR 
- -t 15.372518787 -s 14 -d 19 -p tcp -e 1060 -c 2 -a 0 -i 34 -k RTR
h -t 15.372518787 -s 14 -d 19 -p tcp -e 1060 -c 2 -a 0 -i 34 -k RTR
+ -t 15.384635730 -s 12 -d 18 -p tcp -e 1080 -c 2 -a 0 -i 36 -k RTR 
- -t 15.384635730 -s 12 -d 18 -p tcp -e 1080 -c 2 -a 0 -i 36 -k RTR
h -t 15.384635730 -s 12 -d 18 -p tcp -e 1080 -c 2 -a 0 -i 36 -k RTR
+ -t 15.386763399 -s 14 -d 7 -p ack -e 60 -c 2 -a 0 -i 31 -k RTR 
- -t 15.386763399 -s 14 -d 7 -p ack -e 60 -c 2 -a 0 -i 31 -k RTR
h -t 15.386763399 -s 14 -d 7 -p ack -e 60 -c 2 -a 0 -i 31 -k RTR
r -t 15.396981480 -s 18 -d 18 -p tcp -e 1040 -c 2 -a 0 -i 36 -k AGT
+ -t 15.396981480 -s 18 -d -1 -p ack -e 40 -c 2 -a 0 -i 38 -k AGT 
- -t 15.396981480 -s 18 -d -1 -p ack -e 40 -c 2 -a 0 -i 38 -k AGT
h -t 15.396981480 -s 18 -d -1 -p ack -e 40 -c 2 -a 0 -i 38 -k AGT
+ -t 15.396981480 -s 18 -d 8 -p ack -e 80 -c 2 -a 0 -i 38 -k RTR 
- -t 15.396981480 -s 18 -d 8 -p ack -e 80 -c 2 -a 0 -i 38 -k RTR