Sconfig 0.00000 tap: on snoop: rts? on errs? on
Sconfig 0.00000 salvage: on !bd replies? on
Sconfig 0.00000 grat error: on grat reply: on
Sconfig 0.00000 $reply for props: on ring 0 search: on
Sconfig 0.00000 using MOBICACHE
s 15.000000000 _0_ AGT  --- 0 cbr 512 [0 0 0 0] ------- [0:0 7:0 32 0] [0] 0 0
r 15.000000000 _0_ RTR  --- 0 cbr 512 [0 0 0 0] ------- [0:0 7:0 32 0] [0] 0 0
s 15.000000000 _1_ AGT  --- 2 cbr 512 [0 0 0 0] ------- [1:0 6:0 32 0] [0] 0 0
r 15.000000000 _1_ RTR  --- 2 cbr 512 [0 0 0 0] ------- [1:0 6:0 32 0] [0] 0 0
s 15.000000000 _3_ AGT  --- 4 cbr 512 [0 0 0 0] ------- [3:0 2:0 32 0] [0] 0 0
r 15.000000000 _3_ RTR  --- 4 cbr 512 [0 0 0 0] ------- [3:0 2:0 32 0] [0] 0 0
s 15.006016207 _1_ RTR  --- 3 DSR 32 [0 0 0 0] ------- [1:255 6:255 32 0] 1 [1 1] [0 1 0 0->0] [0 0 0 0->0]
r 15.007148874 _0_ RTR  --- 3 DSR 32 [0 ffffffff 1 800] ------- [1:255 6:255 32 0] 1 [1 1] [0 1 0 0->0] [0 0 0 0->0]
r 15.007148874 _4_ RTR  --- 3 DSR 32 [0 ffffffff 1 800] ------- [1:255 6:255 32 0] 1 [1 1] [0 1 0 0->0] [0 0 0 0->0]
r 15.007148874 _2_ RTR  --- 3 DSR 32 [0 ffffffff 1 800] ------- [1:255 6:255 32 0] 1 [1 1] [0 1 0 0->0] [0 0 0 0->0]
s 15.007498042 _3_ RTR  --- 5 DSR 32 [0 0 0 0] ------- [3:255 2:255 32 0] 1 [1 1] [0 1 0 0->0] [0 0 0 0->0]
r 15.008350709 _0_ RTR  --- 5 DSR 32 [0 ffffffff 3 800] ------- [3:255 2:255 32 0] 1 [1 1] [0 1 0 0->0] [0 0 0 0->0]
r 15.008350709 _6_ RTR  --- 5 DSR 32 [0 ffffffff 3 800] ------- [3:255 2:255 32 0] 1 [1 1] [0 1 0 0->0] [0 0 0 0->0]
r 15.008350709 _4_ RTR  --- 5 DSR 32 [0 ffffffff 3 800] ------- [3:255 2:255 32 0] 1 [1 1] [0 1 0 0->0] [0 0 0 0->0]
s 15.009523409 _0_ RTR  --- 1 DSR 32 [0 0 0 0] ------- [0:255 7:255 32 0] 1 [1 1] [0 1 0 0->0] [0 0 0 0->0]
r 15.010696075 _3_ RTR  --- 1 DSR 32 [0 ffffffff 0 800] ------- [0:255 7:255 32 0] 1 [1 1] [0 1 0 0->0] [0 0 0 0->0]
r 15.010696075 _1_ RTR  --- 1 DSR 32 [0 ffffffff 0 800] ------- [0:255 7:255 32 0] 1 [1 1] [0 1 0 0->0] [0 0 0 0->0]
s 15.030829678 _3_ RTR  --- 8 DSR 32 [0 0 0 0] ------- [3:255 2:255 32 0] 1 [1 2] [0 2 0 0->16] [0 0 0 0->0]
r 15.032082345 _0_ RTR  --- 8 DSR 32 [0 ffffffff 3 800] ------- [3:255 2:255 32 0] 1 [1 2] [0 2 0 0->16] [0 0 0 0->0]
r 15.032082345 _6_ RTR  --- 8 DSR 32 [0 ffffffff 3 800] ------- [3:255 2:255 32 0] 1 [1 2] [0 2 0 0->16] [0 0 0 0->0]
r 15.032082345 _4_ RTR  --- 8 DSR 32 [0 ffffffff 3 800] ------- [3:255 2:255 32 0] 1 [1 2] [0 2 0 0->16] [0 0 0 0->0]
f 15.033242053 _4_ RTR  --- 8 DSR 48 [0 ffffffff 3 800] ------- [3:255 2:255 32 0] 2 [1 2] [0 2 0 0->16] [0 0 0 0->0]
r 15.034682720 _1_ RTR  --- 8 DSR 48 [0 ffffffff 4 800] ------- [3:255 2:255 32 0] 2 [1 2] [0 2 0 0->16] [0 0 0 0->0]
r 15.034682720 _3_ RTR  --- 8 DSR 48 [0 ffffffff 4 800] ------- [3:255 2:255 32 0] 2 [1 2] [0 2 0 0->16] [0 0 0 0->0]
r 15.034682720 _7_ RTR  --- 8 DSR 48 [0 ffffffff 4 800] ------- [3:255 2:255 32 0] 2 [1 2] [0 2 0 0->16] [0 0 0 0->0]
r 15.034682720 _5_ RTR  --- 8 DSR 48 [0 ffffffff 4 800] ------- [3:255 2:255 32 0] 2 [1 2] [0 2 0 0->16] [0 0 0 0->0]
f 15.039159854 _5_ RTR  --- 8 DSR 68 [0 ffffffff 4 800] ------- [3:255 2:255 32 0] 3 [1 2] [0 2 0 0->16] [0 0 0 0->0]
f 15.040033770 _6_ RTR  --- 8 DSR 48 [0 ffffffff 3 800] ------- [3:255 2:255 32 0] 2 [1 2] [0 2 0 0->16] [0 0 0 0->0]
f 15.040597854 _0_ RTR  --- 8 DSR 48 [0 ffffffff 3 800] ------- [3:255 2:255 32 0] 2 [1 2] [0 2 0 0->16] [0 0 0 0->0]
r 15.040620521 _2_ RTR  --- 8 DSR 68 [0 ffffffff 5 800] ------- [3:255 2:255 32 0] 3 [1 2] [0 2 0 0->16] [0 0 0 0->0]
r 15.040620521 _4_ RTR  --- 8 DSR 68 [0 ffffffff 5 800] ------- [3:255 2:255 32 0] 3 [1 2] [0 2 0 0->16] [0 0 0 0->0]
r 15.040620521 _8_ RTR  --- 8 DSR 68 [0 ffffffff 5 800] ------- [3:255 2:255 32 0] 3 [1 2] [0 2 0 0->16] [0 0 0 0->0]
s 15.041802605 _2_ RTR  --- 9 DSR 60 [0 0 0 0] ------- [2:255 3:255 254 5] 4 [0 2] [1 2 4 3->2] [0 0 0 0->0]
r 15.042296011 _3_ RTR  --- 8 DSR 48 [0 ffffffff 6 800] ------- [3:255 2:255 32 0] 2 [1 2] [0 2 0 0->16] [0 0 0 0->0]
r 15.042296011 _7_ RTR  --- 8 DSR 48 [0 ffffffff 6 800] ------- [3:255 2:255 32 0] 2 [1 2] [0 2 0 0->16] [0 0 0 0->0]
f 15.042383881 _7_ RTR  --- 8 DSR 68 [0 ffffffff 4 800] ------- [3:255 2:255 32 0] 3 [1 2] [0 2 0 0->16] [0 0 0 0->0]
r 15.043810605 _3_ RTR  --- 8 DSR 48 [0 ffffffff 0 800] ------- [3:255 2:255 32 0] 2 [1 2] [0 2 0 0->16] [0 0 0 0->0]
r 15.043810605 _1_ RTR  --- 8 DSR 48 [0 ffffffff 0 800] ------- [3:255 2:255 32 0] 2 [1 2] [0 2 0 0->16] [0 0 0 0->0]
f 15.044020938 _1_ RTR  --- 8 DSR 68 [0 ffffffff 4 800] ------- [3:255 2:255 32 0] 3 [1 2] [0 2 0 0->16] [0 0 0 0->0]
r 15.045306095 _4_ RTR  --- 8 DSR 68 [0 ffffffff 7 800] ------- [3:255 2:255 32 0] 3 [1 2] [0 2 0 0->16] [0 0 0 0->0]
r 15.045306095 _6_ RTR  --- 8 DSR 68 [0 ffffffff 7 800] ------- [3:255 2:255 32 0] 3 [1 2] [0 2 0 0->16] [0 0 0 0->0]
r 15.045306095 _8_ RTR  --- 8 DSR 68 [0 ffffffff 7 800] ------- [3:255 2:255 32 0] 3 [1 2] [0 2 0 0->16] [0 0 0 0->0]
f 15.045996753 _8_ RTR  --- 8 DSR 92 [0 ffffffff 5 800] ------- [3:255 2:255 32 0] 4 [1 2] [0 2 0 0->16] [0 0 0 0->0]
r 15.047021429 _0_ RTR  --- 8 DSR 68 [0 ffffffff 1 800] ------- [3:255 2:255 32 0] 3 [1 2] [0 2 0 0->16] [0 0 0 0->0]
r 15.047021429 _4_ RTR  --- 8 DSR 68 [0 ffffffff 1 800] ------- [3:255 2:255 32 0] 3 [1 2] [0 2 0 0->16] [0 0 0 0->0]
r 15.047021429 _2_ RTR  --- 8 DSR 68 [0 ffffffff 1 800] ------- [3:255 2:255 32 0] 3 [1 2] [0 2 0 0->16] [0 0 0 0->0]
s 15.048254023 _1_ RTR  --- 11 DSR 32 [0 0 0 0] ------- [1:255 6:255 32 0] 1 [1 2] [0 2 0 0->16] [0 0 0 0->0]
r 15.049205429 _5_ RTR  --- 9 DSR 60 [13a 5 2 800] ------- [2:255 3:255 254 5] 4 [0 2] [1 2 4 3->2] [0 0 0 0->0]
f 15.049205429 _5_ RTR  --- 9 DSR 60 [13a 5 2 800] ------- [2:255 3:255 253 4] 4 [0 2] [1 2 4 3->2] [0 0 0 0->0]
s 15.050168774 _0_ AGT  --- 12 cbr 512 [0 0 0 0] ------- [0:0 7:0 32 0] [1] 0 0
r 15.050168774 _0_ RTR  --- 12 cbr 512 [0 0 0 0] ------- [0:0 7:0 32 0] [1] 0 0
r 15.050792762 _5_ RTR  --- 8 DSR 92 [0 ffffffff 8 800] ------- [3:255 2:255 32 0] 4 [1 2] [0 2 0 0->16] [0 0 0 0->0]
r 15.050792762 _7_ RTR  --- 8 DSR 92 [0 ffffffff 8 800] ------- [3:255 2:255 32 0] 4 [1 2] [0 2 0 0->16] [0 0 0 0->0]
s 15.052661895 _2_ RTR  --- 10 DSR 60 [0 0 0 0] ------- [2:255 3:255 254 1] 4 [0 2] [1 2 4 3->2] [0 0 0 0->0]
r 15.052736762 _4_ RTR  --- 9 DSR 60 [13a 4 5 800] ------- [2:255 3:255 253 4] 4 [0 2] [1 2 4 3->2] [0 0 0 0->0]
f 15.052736762 _4_ RTR  --- 9 DSR 60 [13a 4 5 800] ------- [2:255 3:255 252 3] 4 [0 2] [1 2 4 3->2] [0 0 0 0->0]
r 15.054994762 _3_ RTR  --- 9 DSR 60 [13a 3 4 800] ------- [2:255 3:255 252 3] 4 [0 2] [1 2 4 3->2] [0 0 0 0->0]
SFESTs 15.054994762 _3_ 4 [3 -> 2] 1(1) to 4 [3 |4 5 2 ]
s 15.054994762 _3_ RTR  --- 4 cbr 556 [0 0 0 0] ------- [3:0 2:0 32 4] [0] 0 0
s 15.057238245 _0_ RTR  --- 13 DSR 32 [0 0 0 0] ------- [0:255 7:255 32 0] 1 [1 2] [0 2 0 0->16] [0 0 0 0->0]
r 15.061220762 _4_ RTR  --- 4 cbr 556 [13a 4 3 800] ------- [3:0 2:0 32 4] [0] 1 0
f 15.061220762 _4_ RTR  --- 4 cbr 556 [13a 4 3 800] ------- [3:0 2:0 31 5] [0] 1 0
r 15.062387705 _0_ RTR  --- 11 DSR 32 [0 ffffffff 1 800] ------- [1:255 6:255 32 0] 1 [1 2] [0 2 0 0->16] [0 0 0 0->0]
r 15.062387705 _4_ RTR  --- 11 DSR 32 [0 ffffffff 1 800] ------- [1:255 6:255 32 0] 1 [1 2] [0 2 0 0->16] [0 0 0 0->0]
r 15.062387705 _2_ RTR  --- 11 DSR 32 [0 ffffffff 1 800] ------- [1:255 6:255 32 0] 1 [1 2] [0 2 0 0->16] [0 0 0 0->0]
f 15.062685882 _2_ RTR  --- 11 DSR 48 [0 ffffffff 1 800] ------- [1:255 6:255 32 0] 2 [1 2] [0 2 0 0->16] [0 0 0 0->0]
r 15.063130371 _3_ RTR  --- 13 DSR 32 [0 ffffffff 0 800] ------- [0:255 7:255 32 0] 1 [1 2] [0 2 0 0->16] [0 0 0 0->0]
r 15.063130371 _1_ RTR  --- 13 DSR 32 [0 ffffffff 0 800] ------- [0:255 7:255 32 0] 1 [1 2] [0 2 0 0->16] [0 0 0 0->0]
r 15.065499038 _1_ RTR  --- 10 DSR 60 [13a 1 2 800] ------- [2:255 3:255 254 1] 4 [0 2] [1 2 4 3->2] [0 0 0 0->0]
f 15.065499038 _1_ RTR  --- 10 DSR 60 [13a 1 2 800] ------- [2:255 3:255 253 4] 4 [0 2] [1 2 4 3->2] [0 0 0 0->0]
f 15.066662244 _0_ RTR  --- 11 DSR 48 [0 ffffffff 1 800] ------- [1:255 6:255 32 0] 2 [1 2] [0 2 0 0->16] [0 0 0 0->0]
r 15.067477038 _4_ RTR  --- 10 DSR 60 [13a 4 1 800] ------- [2:255 3:255 253 4] 4 [0 2] [1 2 4 3->2] [0 0 0 0->0]
f 15.067477038 _4_ RTR  --- 10 DSR 60 [13a 4 1 800] ------- [2:255 3:255 252 3] 4 [0 2] [1 2 4 3->2] [0 0 0 0->0]
f 15.069953054 _1_ RTR  --- 13 DSR 48 [0 ffffffff 0 800] ------- [0:255 7:255 32 0] 2 [1 2] [0 2 0 0->16] [0 0 0 0->0]
f 15.070215354 _4_ RTR  --- 11 DSR 48 [0 ffffffff 1 800] ------- [1:255 6:255 32 0] 2 [1 2] [0 2 0 0->16] [0 0 0 0->0]
f 15.071546929 _3_ RTR  --- 13 DSR 48 [0 ffffffff 0 800] ------- [0:255 7:255 32 0] 2 [1 2] [0 2 0 0->16] [0 0 0 0->0]
r 15.073423038 _5_ RTR  --- 4 cbr 556 [13a 5 4 800] ------- [3:0 2:0 31 5] [0] 2 0
f 15.073423038 _5_ RTR  --- 4 cbr 556 [13a 5 4 800] ------- [3:0 2:0 30 2] [0] 2 0
r 15.079329038 _2_ RTR  --- 4 cbr 556 [13a 2 5 800] ------- [3:0 2:0 30 2] [0] 3 0
r 15.079329038 _2_ AGT  --- 4 cbr 512 [13a 2 5 800] ------- [3:0 2:0 30 2] [0] 3 0
r 15.080573705 _1_ RTR  --- 11 DSR 48 [0 ffffffff 2 800] ------- [1:255 6:255 32 0] 2 [1 2] [0 2 0 0->16] [0 0 0 0->0]
r 15.080573705 _5_ RTR  --- 11 DSR 48 [0 ffffffff 2 800] ------- [1:255 6:255 32 0] 2 [1 2] [0 2 0 0->16] [0 0 0 0->0]
r 15.081864371 _0_ RTR  --- 13 DSR 48 [0 ffffffff 1 800] ------- [0:255 7:255 32 0] 2 [1 2] [0 2 0 0->16] [0 0 0 0->0]
r 15.081864371 _4_ RTR  --- 13 DSR 48 [0 ffffffff 1 800] ------- [0:255 7:255 32 0] 2 [1 2] [0 2 0 0->16] [0 0 0 0->0]
r 15.081864371 _2_ RTR  --- 13 DSR 48 [0 ffffffff 1 800] ------- [0:255 7:255 32 0] 2 [1 2] [0 2 0 0->16] [0 0 0 0->0]
r 15.082835038 _3_ RTR  --- 11 DSR 48 [0 ffffffff 0 800] ------- [1:255 6:255 32 0] 2 [1 2] [0 2 0 0->16] [0 0 0 0->0]
r 15.082835038 _1_ RTR  --- 11 DSR 48 [0 ffffffff 0 800] ------- [1:255 6:255 32 0] 2 [1 2] [0 2 0 0->16] [0 0 0 0->0]
r 15.084085705 _0_ RTR  --- 13 DSR 48 [0 ffffffff 3 800] ------- [0:255 7:255 32 0] 2 [1 2] [0 2 0 0->16] [0 0 0 0->0]
r 15.084085705 _6_ RTR  --- 13 DSR 48 [0 ffffffff 3 800] ------- [0:255 7:255 32 0] 2 [1 2] [0 2 0 0->16] [0 0 0 0->0]
r 15.084085705 _4_ RTR  --- 13 DSR 48 [0 ffffffff 3 800] ------- [0:255 7:255 32 0] 2 [1 2] [0 2 0 0->16] [0 0 0 0->0]
f 15.084462570 _2_ RTR  --- 13 DSR 68 [0 ffffffff 1 800] ------- [0:255 7:255 32 0] 3 [1 2] [0 2 0 0->16] [0 0 0 0->0]
r 15.085016371 _1_ RTR  --- 11 DSR 48 [0 ffffffff 4 800] ------- [1:255 6:255 32 0] 2 [1 2] [0 2 0 0->16] [0 0 0 0->0]
r 15.085016371 _3_ RTR  --- 11 DSR 48 [0 ffffffff 4 800] ------- [1:255 6:255 32 0] 2 [1 2] [0 2 0 0->16] [0 0 0 0->0]
r 15.085016371 _7_ RTR  --- 11 DSR 48 [0 ffffffff 4 800] ------- [1:255 6:255 32 0] 2 [1 2] [0 2 0 0->16] [0 0 0 0->0]
r 15.085016371 _5_ RTR  --- 11 DSR 48 [0 ffffffff 4 800] ------- [1:255 6:255 32 0] 2 [1 2] [0 2 0 0->16] [0 0 0 0->0]
f 15.085400101 _7_ RTR  --- 11 DSR 68 [0 ffffffff 4 800] ------- [1:255 6:255 32 0] 3 [1 2] [0 2 0 0->16] [0 0 0 0->0]
f 15.086011648 _6_ RTR  --- 13 DSR 68 [0 ffffffff 3 800] ------- [0:255 7:255 32 0] 3 [1 2] [0 2 0 0->16] [0 0 0 0->0]
f 15.086284141 _4_ RTR  --- 13 DSR 68 [0 ffffffff 1 800] ------- [0:255 7:255 32 0] 3 [1 2] [0 2 0 0->16] [0 0 0 0->0]
f 15.086695665 _5_ RTR  --- 11 DSR 68 [0 ffffffff 2 800] ------- [1:255 6:255 32 0] 3 [1 2] [0 2 0 0->16] [0 0 0 0->0]
r 15.086719705 _3_ RTR  --- 10 DSR 60 [13a 3 4 800] ------- [2:255 3:255 252 3] 4 [0 2] [1 2 4 3->2] [0 0 0 0->0]
r 15.088174648 _3_ RTR  --- 13 DSR 68 [0 ffffffff 6 800] ------- [0:255 7:255 32 0] 3 [1 2] [0 2 0 0->16] [0 0 0 0->0]
r 15.088174648 _7_ RTR  --- 13 DSR 68 [0 ffffffff 6 800] ------- [0:255 7:255 32 0] 3 [1 2] [0 2 0 0->16] [0 0 0 0->0]
r 15.090065353 _4_ RTR  --- 11 DSR 68 [0 ffffffff 7 800] ------- [1:255 6:255 32 0] 3 [1 2] [0 2 0 0->16] [0 0 0 0->0]
r 15.090065353 _6_ RTR  --- 11 DSR 68 [0 ffffffff 7 800] ------- [1:255 6:255 32 0] 3 [1 2] [0 2 0 0->16] [0 0 0 0->0]
r 15.090065353 _8_ RTR  --- 11 DSR 68 [0 ffffffff 7 800] ------- [1:255 6:255 32 0] 3 [1 2] [0 2 0 0->16] [0 0 0 0->0]
s 15.090207244 _3_ AGT  --- 18 cbr 512 [0 0 0 0] ------- [3:0 2:0 32 0] [1] 0 0
r 15.090207244 _3_ RTR  --- 18 cbr 512 [0 0 0 0] ------- [3:0 2:0 32 0] [1] 0 0
SFESTs 15.090207244 _3_ 18 [3 -> 2] 1(1) to 4 [3 |4 5 2 ]
s 15.090207244 _3_ RTR  --- 18 cbr 556 [0 0 0 0] ------- [3:0 2:0 32 4] [1] 0 0
f 15.090404849 _8_ RTR  --- 11 DSR 92 [0 ffffffff 7 800] ------- [1:255 6:255 32 0] 4 [1 2] [0 2 0 0->16] [0 0 0 0->0]
r 15.091096020 _1_ RTR  --- 13 DSR 68 [0 ffffffff 4 800] ------- [0:255 7:255 32 0] 3 [1 2] [0 2 0 0->16] [0 0 0 0->0]
r 15.091096020 _3_ RTR  --- 13 DSR 68 [0 ffffffff 4 800] ------- [0:255 7:255 32 0] 3 [1 2] [0 2 0 0->16] [0 0 0 0->0]
r 15.091096020 _7_ RTR  --- 13 DSR 68 [0 ffffffff 4 800] ------- [0:255 7:255 32 0] 3 [1 2] [0 2 0 0->16] [0 0 0 0->0]
r 15.091096020 _5_ RTR  --- 13 DSR 68 [0 ffffffff 4 800] ------- [0:255 7:255 32 0] 3 [1 2] [0 2 0 0->16] [0 0 0 0->0]
f 15.092509579 _3_ RTR  --- 11 DSR 68 [0 ffffffff 0 800] ------- [1:255 6:255 32 0] 3 [1 2] [0 2 0 0->16] [0 0 0 0->0]
s 15.092957709 _6_ RTR  --- 17 DSR 60 [0 0 0 0] ------- [6:255 1:255 254 7] 4 [0 2] [1 2 4 1->6] [0 0 0 0->0]
s 15.093173913 _7_ RTR  --- 16 DSR 60 [0 0 0 0] ------- [7:255 0:255 254 6] 4 [0 2] [1 2 4 0->7] [0 0 0 0->0]
r 15.096808020 _4_ RTR  --- 18 cbr 556 [13a 4 3 800] ------- [3:0 2:0 32 4] [1] 1 0
f 15.096808020 _4_ RTR  --- 18 cbr 556 [13a 4 3 800] ------- [3:0 2:0 31 5] [1] 1 0
s 15.097412485 _7_ RTR  --- 19 DSR 60 [0 0 0 0] ------- [7:255 0:255 254 4] 4 [0 2] [1 2 4 0->7] [0 0 0 0->0]
r 15.098193353 _0_ RTR  --- 11 DSR 68 [0 ffffffff 3 800] ------- [1:255 6:255 32 0] 3 [1 2] [0 2 0 0->16] [0 0 0 0->0]
r 15.098193353 _6_ RTR  --- 11 DSR 68 [0 ffffffff 3 800] ------- [1:255 6:255 32 0] 3 [1 2] [0 2 0 0->16] [0 0 0 0->0]
r 15.098193353 _4_ RTR  --- 11 DSR 68 [0 ffffffff 3 800] ------- [1:255 6:255 32 0] 3 [1 2] [0 2 0 0->16] [0 0 0 0->0]
s 15.098287990 _6_ RTR  --- 22 DSR 60 [0 0 0 0] ------- [6:255 1:255 254 3] 4 [0 2] [1 2 4 1->6] [0 0 0 0->0]
f 15.101057841 _5_ RTR  --- 13 DSR 92 [0 ffffffff 4 800] ------- [0:255 7:255 32 0] 4 [1 2] [0 2 0 0->16] [0 0 0 0->0]
r 15.103945353 _5_ RTR  --- 18 cbr 556 [13a 5 4 800] ------- [3:0 2:0 31 5] [1] 2 0
f 15.103945353 _5_ RTR  --- 18 cbr 556 [13a 5 4 800] ------- [3:0 2:0 30 2] [1] 2 0
r 15.105330020 _2_ RTR  --- 11 DSR 68 [0 ffffffff 5 800] ------- [1:255 6:255 32 0] 3 [1 2] [0 2 0 0->16] [0 0 0 0->0]
r 15.105330020 _4_ RTR  --- 11 DSR 68 [0 ffffffff 5 800] ------- [1:255 6:255 32 0] 3 [1 2] [0 2 0 0->16] [0 0 0 0->0]
r 15.105330020 _8_ RTR  --- 11 DSR 68 [0 ffffffff 5 800] ------- [1:255 6:255 32 0] 3 [1 2] [0 2 0 0->16] [0 0 0 0->0]
r 15.106692020 _2_ RTR  --- 13 DSR 92 [0 ffffffff 5 800] ------- [0:255 7:255 32 0] 4 [1 2] [0 2 0 0->16] [0 0 0 0->0]
r 15.106692020 _4_ RTR  --- 13 DSR 92 [0 ffffffff 5 800] ------- [0:255 7:255 32 0] 4 [1 2] [0 2 0 0->16] [0 0 0 0->0]
r 15.106692020 _8_ RTR  --- 13 DSR 92 [0 ffffffff 5 800] ------- [0:255 7:255 32 0] 4 [1 2] [0 2 0 0->16] [0 0 0 0->0]
r 15.108134686 _5_ RTR  --- 11 DSR 92 [0 ffffffff 8 800] ------- [1:255 6:255 32 0] 4 [1 2] [0 2 0 0->16] [0 0 0 0->0]
r 15.108134686 _7_ RTR  --- 11 DSR 92 [0 ffffffff 8 800] ------- [1:255 6:255 32 0] 4 [1 2] [0 2 0 0->16] [0 0 0 0->0]
f 15.108314127 _8_ RTR  --- 13 DSR 120 [0 ffffffff 5 800] ------- [0:255 7:255 32 0] 5 [1 2] [0 2 0 0->16] [0 0 0 0->0]
r 15.113746686 _2_ RTR  --- 18 cbr 556 [13a 2 5 800] ------- [3:0 2:0 30 2] [1] 3 0
r 15.113746686 _2_ AGT  --- 18 cbr 512 [13a 2 5 800] ------- [3:0 2:0 30 2] [1] 3 0
r 15.115755510 _7_ RTR  --- 17 DSR 60 [13a 7 6 800] ------- [6:255 1:255 254 7] 4 [0 2] [1 2 4 1->6] [0 0 0 0->0]
f 15.115755510 _7_ RTR  --- 17 DSR 60 [13a 7 6 800] ------- [6:255 1:255 253 4] 4 [0 2] [1 2 4 1->6] [0 0 0 0->0]
r 15.117914177 _3_ RTR  --- 22 DSR 60 [13a 3 6 800] ------- [6:255 1:255 254 3] 4 [0 2] [1 2 4 1->6] [0 0 0 0->0]
f 15.117914177 _3_ RTR  --- 22 DSR 60 [13a 3 6 800] ------- [6:255 1:255 253 0] 4 [0 2] [1 2 4 1->6] [0 0 0 0->0]
r 15.120212177 _0_ RTR  --- 22 DSR 60 [13a 0 3 800] ------- [6:255 1:255 253 0] 4 [0 2] [1 2 4 1->6] [0 0 0 0->0]
f 15.120212177 _0_ RTR  --- 22 DSR 60 [13a 0 3 800] ------- [6:255 1:255 252 1] 4 [0 2] [1 2 4 1->6] [0 0 0 0->0]
r 15.124557668 _6_ RTR  --- 16 DSR 60 [13a 6 7 800] ------- [7:255 0:255 254 6] 4 [0 2] [1 2 4 0->7] [0 0 0 0->0]
f 15.124557668 _6_ RTR  --- 16 DSR 60 [13a 6 7 800] ------- [7:255 0:255 253 3] 4 [0 2] [1 2 4 0->7] [0 0 0 0->0]
r 15.126935668 _3_ RTR  --- 16 DSR 60 [13a 3 6 800] ------- [7:255 0:255 253 3] 4 [0 2] [1 2 4 0->7] [0 0 0 0->0]
f 15.126935668 _3_ RTR  --- 16 DSR 60 [13a 3 6 800] ------- [7:255 0:255 252 0] 4 [0 2] [1 2 4 0->7] [0 0 0 0->0]
r 15.129293668 _0_ RTR  --- 16 DSR 60 [13a 0 3 800] ------- [7:255 0:255 252 0] 4 [0 2] [1 2 4 0->7] [0 0 0 0->0]
SFESTs 15.129293668 _0_ 0 [0 -> 7] 1(1) to 3 [0 |3 6 7 ]
SFESTs 15.129293668 _0_ 12 [0 -> 7] 1(1) to 3 [0 |3 6 7 ]
s 15.129293668 _0_ RTR  --- 0 cbr 556 [0 0 0 0] ------- [0:0 7:0 32 3] [0] 0 0
r 15.131737158 _4_ RTR  --- 17 DSR 60 [13a 4 7 800] ------- [6:255 1:255 253 4] 4 [0 2] [1 2 4 1->6] [0 0 0 0->0]
f 15.131737158 _4_ RTR  --- 17 DSR 60 [13a 4 7 800] ------- [6:255 1:255 252 1] 4 [0 2] [1 2 4 1->6] [0 0 0 0->0]
r 15.133675825 _4_ RTR  --- 19 DSR 60 [13a 4 7 800] ------- [7:255 0:255 254 4] 4 [0 2] [1 2 4 0->7] [0 0 0 0->0]
f 15.133675825 _4_ RTR  --- 19 DSR 60 [13a 4 7 800] ------- [7:255 0:255 253 1] 4 [0 2] [1 2 4 0->7] [0 0 0 0->0]
r 15.136213825 _1_ RTR  --- 17 DSR 60 [13a 1 4 800] ------- [6:255 1:255 252 1] 4 [0 2] [1 2 4 1->6] [0 0 0 0->0]
SFESTs 15.136213825 _1_ 2 [1 -> 6] 1(1) to 4 [1 |4 7 6 ]
s 15.136213825 _1_ RTR  --- 2 cbr 556 [0 0 0 0] ------- [1:0 6:0 32 4] [0] 0 0
s 15.140131978 _0_ AGT  --- 24 cbr 512 [0 0 0 0] ------- [0:0 7:0 32 0] [2] 0 0
r 15.140131978 _0_ RTR  --- 24 cbr 512 [0 0 0 0] ------- [0:0 7:0 32 0] [2] 0 0
SFESTs 15.140131978 _0_ 24 [0 -> 7] 1(1) to 3 [0 |3 6 7 ]
s 15.140131978 _0_ RTR  --- 24 cbr 556 [0 0 0 0] ------- [0:0 7:0 32 3] [2] 0 0
s 15.141724709 _1_ AGT  --- 25 cbr 512 [0 0 0 0] ------- [1:0 6:0 32 0] [1] 0 0
r 15.141724709 _1_ RTR  --- 25 cbr 512 [0 0 0 0] ------- [1:0 6:0 32 0] [1] 0 0
SFESTs 15.141724709 _1_ 25 [1 -> 6] 1(1) to 4 [1 |4 7 6 ]
s 15.141724709 _1_ RTR  --- 25 cbr 556 [0 0 0 0] ------- [1:0 6:0 32 4] [1] 0 0
r 15.142139825 _4_ RTR  --- 2 cbr 556 [13a 4 1 800] ------- [1:0 6:0 32 4] [0] 1 0
f 15.142139825 _4_ RTR  --- 2 cbr 556 [13a 4 1 800] ------- [1:0 6:0 31 7] [0] 1 0
r 15.144317825 _1_ RTR  --- 19 DSR 60 [13a 1 4 800] ------- [7:255 0:255 253 1] 4 [0 2] [1 2 4 0->7] [0 0 0 0->0]
f 15.144317825 _1_ RTR  --- 19 DSR 60 [13a 1 4 800] ------- [7:255 0:255 252 0] 4 [0 2] [1 2 4 0->7] [0 0 0 0->0]
r 15.150263825 _4_ RTR  --- 25 cbr 556 [13a 4 1 800] ------- [1:0 6:0 32 4] [1] 1 0
f 15.150263825 _4_ RTR  --- 25 cbr 556 [13a 4 1 800] ------- [1:0 6:0 31 7] [1] 1 0
r 15.156449825 _7_ RTR  --- 2 cbr 556 [13a 7 4 800] ------- [1:0 6:0 31 7] [0] 2 0
f 15.156449825 _7_ RTR  --- 2 cbr 556 [13a 7 4 800] ------- [1:0 6:0 30 6] [0] 2 0
s 15.159293668 _0_ RTR  --- 12 cbr 556 [0 0 0 0] ------- [0:0 7:0 32 3] [1] 0 0
r 15.162635825 _6_ RTR  --- 2 cbr 556 [13a 6 7 800] ------- [1:0 6:0 30 6] [0] 3 0
r 15.162635825 _6_ AGT  --- 2 cbr 512 [13a 6 7 800] ------- [1:0 6:0 30 6] [0] 3 0
r 15.168966768 _7_ RTR  --- 25 cbr 556 [13a 7 4 800] ------- [1:0 6:0 31 7] [1] 2 0
f 15.168966768 _7_ RTR  --- 25 cbr 556 [13a 7 4 800] ------- [1:0 6:0 30 6] [1] 2 0
r 15.175012768 _6_ RTR  --- 25 cbr 556 [13a 6 7 800] ------- [1:0 6:0 30 6] [1] 3 0
r 15.175012768 _6_ AGT  --- 25 cbr 512 [13a 6 7 800] ------- [1:0 6:0 30 6] [1] 3 0
r 15.177516259 _0_ RTR  --- 19 DSR 60 [13a 0 1 800] ------- [7:255 0:255 252 0] 4 [0 2] [1 2 4 0->7] [0 0 0 0->0]
r 15.179794259 _1_ RTR  --- 22 DSR 60 [13a 1 0 800] ------- [6:255 1:255 252 1] 4 [0 2] [1 2 4 1->6] [0 0 0 0->0]
r 15.186180925 _3_ RTR  --- 0 cbr 556 [13a 3 0 800] ------- [0:0 7:0 32 3] [0] 1 0
f 15.186180925 _3_ RTR  --- 0 cbr 556 [13a 3 0 800] ------- [0:0 7:0 31 6] [0] 1 0
r 15.192546925 _6_ RTR  --- 0 cbr 556 [13a 6 3 800] ------- [0:0 7:0 31 6] [0] 2 0
f 15.192546925 _6_ RTR  --- 0 cbr 556 [13a 6 3 800] ------- [0:0 7:0 30 7] [0] 2 0
r 15.198772925 _7_ RTR  --- 0 cbr 556 [13a 7 6 800] ------- [0:0 7:0 30 7] [0] 3 0
r 15.198772925 _7_ AGT  --- 0 cbr 512 [13a 7 6 800] ------- [0:0 7:0 30 7] [0] 3 0
s 15.200852582 _3_ AGT  --- 26 cbr 512 [0 0 0 0] ------- [3:0 2:0 32 0] [2] 0 0
r 15.200852582 _3_ RTR  --- 26 cbr 512 [0 0 0 0] ------- [3:0 2:0 32 0] [2] 0 0
SFESTs 15.200852582 _3_ 26 [3 -> 2] 1(1) to 4 [3 |4 5 2 ]
s 15.200852582 _3_ RTR  --- 26 cbr 556 [0 0 0 0] ------- [3:0 2:0 32 4] [2] 0 0
r 15.205064416 _3_ RTR  --- 24 cbr 556 [13a 3 0 800] ------- [0:0 7:0 32 3] [2] 1 0
f 15.205064416 _3_ RTR  --- 24 cbr 556 [13a 3 0 800] ------- [0:0 7:0 31 6] [2] 1 0
r 15.211131083 _3_ RTR  --- 12 cbr 556 [13a 3 0 800] ------- [0:0 7:0 32 3] [1] 1 0
f 15.211131083 _3_ RTR  --- 12 cbr 556 [13a 3 0 800] ------- [0:0 7:0 31 6] [1] 1 0
r 15.217257083 _4_ RTR  --- 26 cbr 556 [13a 4 3 800] ------- [3:0 2:0 32 4] [2] 1 0
f 15.217257083 _4_ RTR  --- 26 cbr 556 [13a 4 3 800] ------- [3:0 2:0 31 5] [2] 1 0
r 15.223623083 _5_ RTR  --- 26 cbr 556 [13a 5 4 800] ------- [3:0 2:0 31 5] [2] 2 0
f 15.223623083 _5_ RTR  --- 26 cbr 556 [13a 5 4 800] ------- [3:0 2:0 30 2] [2] 2 0
r 15.229889083 _2_ RTR  --- 26 cbr 556 [13a 2 5 800] ------- [3:0 2:0 30 2] [2] 3 0
r 15.229889083 _2_ AGT  --- 26 cbr 512 [13a 2 5 800] ------- [3:0 2:0 30 2] [2] 3 0
r 15.236220573 _6_ RTR  --- 24 cbr 556 [13a 6 3 800] ------- [0:0 7:0 31 6] [2] 2 0
f 15.236220573 _6_ RTR  --- 24 cbr 556 [13a 6 3 800] ------- [0:0 7:0 30 7] [2] 2 0
s 15.241253594 _1_ AGT  --- 27 cbr 512 [0 0 0 0] ------- [1:0 6:0 32 0] [2] 0 0
r 15.241253594 _1_ RTR  --- 27 cbr 512 [0 0 0 0] ------- [1:0 6:0 32 0] [2] 0 0
SFESTs 15.241253594 _1_ 27 [1 -> 6] 1(1) to 4 [1 |4 7 6 ]
s 15.241253594 _1_ RTR  --- 27 cbr 556 [0 0 0 0] ------- [1:0 6:0 32 4] [2] 0 0
r 15.242326573 _7_ RTR  --- 24 cbr 556 [13a 7 6 800] ------- [0:0 7:0 30 7] [2] 3 0
r 15.242326573 _7_ AGT  --- 24 cbr 512 [13a 7 6 800] ------- [0:0 7:0 30 7] [2] 3 0
r 15.248817516 _6_ RTR  --- 12 cbr 556 [13a 6 3 800] ------- [0:0 7:0 31 6] [1] 2 0
f 15.248817516 _6_ RTR  --- 12 cbr 556 [13a 6 3 800] ------- [0:0 7:0 30 7] [1] 2 0
r 15.255163516 _7_ RTR  --- 12 cbr 556 [13a 7 6 800] ------- [0:0 7:0 30 7] [1] 3 0
r 15.255163516 _7_ AGT  --- 12 cbr 512 [13a 7 6 800] ------- [0:0 7:0 30 7] [1] 3 0
r 15.261494849 _4_ RTR  --- 27 cbr 556 [13a 4 1 800] ------- [1:0 6:0 32 4] [2] 1 0
f 15.261494849 _4_ RTR  --- 27 cbr 556 [13a 4 1 800] ------- [1:0 6:0 31 7] [2] 1 0
s 15.262546278 _0_ AGT  --- 28 cbr 512 [0 0 0 0] ------- [0:0 7:0 32 0] [3] 0 0
r 15.262546278 _0_ RTR  --- 28 cbr 512 [0 0 0 0] ------- [0:0 7:0 32 0] [3] 0 0
SFs 15.262546278 _0_ 28 [0 -> 7] 1(0) to 3 
s 15.262546278 _0_ RTR  --- 28 cbr 532 [0 0 0 0] ------- [0:0 7:0 32 3] [3] 0 0
r 15.267820849 _7_ RTR  --- 27 cbr 556 [13a 7 4 800] ------- [1:0 6:0 31 7] [2] 2 0
f 15.267820849 _7_ RTR  --- 27 cbr 556 [13a 7 4 800] ------- [1:0 6:0 30 6] [2] 2 0
r 15.273826849 _6_ RTR  --- 27 cbr 556 [13a 6 7 800] ------- [1:0 6:0 30 6] [2] 3 0
r 15.273826849 _6_ AGT  --- 27 cbr 512 [13a 6 7 800] ------- [1:0 6:0 30 6] [2] 3 0
s 15.274624609 _3_ AGT  --- 29 cbr 512 [0 0 0 0] ------- [3:0 2:0 32 0] [3] 0 0
r 15.274624609 _3_ RTR  --- 29 cbr 512 [0 0 0 0] ------- [3:0 2:0 32 0] [3] 0 0
SFs 15.274624609 _3_ 29 [3 -> 2] 1(0) to 4 
s 15.274624609 _3_ RTR  --- 29 cbr 532 [0 0 0 0] ------- [3:0 2:0 32 4] [3] 0 0
r 15.280026183 _3_ RTR  --- 28 cbr 532 [13a 3 0 800] ------- [0:0 7:0 32 3] [3] 1 0
SFf 15.280026183 _3_ 28 [0 -> 7] 1 to 6
f 15.280026183 _3_ RTR  --- 28 cbr 532 [13a 3 0 800] ------- [0:0 7:0 31 6] [3] 1 0
r 15.285980183 _4_ RTR  --- 29 cbr 532 [13a 4 3 800] ------- [3:0 2:0 32 4] [3] 1 0
SFf 15.285980183 _4_ 29 [3 -> 2] 1 to 5
f 15.285980183 _4_ RTR  --- 29 cbr 532 [13a 4 3 800] ------- [3:0 2:0 31 5] [3] 1 0
r 15.291874849 _6_ RTR  --- 28 cbr 532 [13a 6 3 800] ------- [0:0 7:0 31 6] [3] 2 0
SFf 15.291874849 _6_ 28 [0 -> 7] 1 to 7
f 15.291874849 _6_ RTR  --- 28 cbr 532 [13a 6 3 800] ------- [0:0 7:0 30 7] [3] 2 0
r 15.297968849 _7_ RTR  --- 28 cbr 532 [13a 7 6 800] ------- [0:0 7:0 30 7] [3] 3 0
r 15.297968849 _7_ AGT  --- 28 cbr 512 [13a 7 6 800] ------- [0:0 7:0 30 7] [3] 3 0
r 15.303753126 _5_ RTR  --- 29 cbr 532 [13a 5 4 800] ------- [3:0 2:0 31 5] [3] 2 0
SFf 15.303753126 _5_ 29 [3 -> 2] 1 to 2
f 15.303753126 _5_ RTR  --- 29 cbr 532 [13a 5 4 800] ------- [3:0 2:0 30 2] [3] 2 0
r 15.309567126 _2_ RTR  --- 29 cbr 532 [13a 2 5 800] ------- [3:0 2:0 30 2] [3] 3 0
r 15.309567126 _2_ AGT  --- 29 cbr 512 [13a 2 5 800] ------- [3:0 2:0 30 2] [3] 3 0
s 15.316708137 _0_ AGT  --- 30 cbr 512 [0 0 0 0] ------- [0:0 7:0 32 0] [4] 0 0
r 15.316708137 _0_ RTR  --- 30 cbr 512 [0 0 0 0] ------- [0:0 7:0 32 0] [4] 0 0
SFs 15.316708137 _0_ 30 [0 -> 7] 1(0) to 3 
s 15.316708137 _0_ RTR  --- 30 cbr 532 [0 0 0 0] ------- [0:0 7:0 32 3] [4] 0 0
r 15.322758137 _3_ RTR  --- 30 cbr 532 [13a 3 0 800] ------- [0:0 7:0 32 3] [4] 1 0
SFf 15.322758137 _3_ 30 [0 -> 7] 1 to 6
f 15.322758137 _3_ RTR  --- 30 cbr 532 [13a 3 0 800] ------- [0:0 7:0 31 6] [4] 1 0
r 15.329012137 _6_ RTR  --- 30 cbr 532 [13a 6 3 800] ------- [0:0 7:0 31 6] [4] 2 0
SFf 15.329012137 _6_ 30 [0 -> 7] 1 to 7
f 15.329012137 _6_ RTR  --- 30 cbr 532 [13a 6 3 800] ------- [0:0 7:0 30 7] [4] 2 0
r 15.335046137 _7_ RTR  --- 30 cbr 532 [13a 7 6 800] ------- [0:0 7:0 30 7] [4] 3 0
r 15.335046137 _7_ AGT  --- 30 cbr 512 [13a 7 6 800] ------- [0:0 7:0 30 7] [4] 3 0
s 15.336095710 _3_ AGT  --- 31 cbr 512 [0 0 0 0] ------- [3:0 2:0 32 0] [4] 0 0
r 15.336095710 _3_ RTR  --- 31 cbr 512 [0 0 0 0] ------- [3:0 2:0 32 0] [4] 0 0
SFs 15.336095710 _3_ 31 [3 -> 2] 1(0) to 4 
s 15.336095710 _3_ RTR  --- 31 cbr 532 [0 0 0 0] ------- [3:0 2:0 32 4] [4] 0 0
s 15.341231951 _1_ AGT  --- 32 cbr 512 [0 0 0 0] ------- [1:0 6:0 32 0] [3] 0 0
r 15.341231951 _1_ RTR  --- 32 cbr 512 [0 0 0 0] ------- [1:0 6:0 32 0] [3] 0 0
SFs 15.341231951 _1_ 32 [1 -> 6] 1(0) to 4 
s 15.341231951 _1_ RTR  --- 32 cbr 532 [0 0 0 0] ------- [1:0 6:0 32 4] [3] 0 0
r 15.342025710 _4_ RTR  --- 31 cbr 532 [13a 4 3 800] ------- [3:0 2:0 32 4] [4] 1 0
SFf 15.342025710 _4_ 31 [3 -> 2] 1 to 5
f 15.342025710 _4_ RTR  --- 31 cbr 532 [13a 4 3 800] ------- [3:0 2:0 31 5] [4] 1 0
r 15.348109986 _4_ RTR  --- 32 cbr 532 [13a 4 1 800] ------- [1:0 6:0 32 4] [3] 1 0
SFf 15.348109986 _4_ 32 [1 -> 6] 1 to 7
f 15.348109986 _4_ RTR  --- 32 cbr 532 [13a 4 1 800] ------- [1:0 6:0 31 7] [3] 1 0
r 15.354063986 _5_ RTR  --- 31 cbr 532 [13a 5 4 800] ------- [3:0 2:0 31 5] [4] 2 0
SFf 15.354063986 _5_ 31 [3 -> 2] 1 to 2
f 15.354063986 _5_ RTR  --- 31 cbr 532 [13a 5 4 800] ------- [3:0 2:0 30 2] [4] 2 0
r 15.359837986 _2_ RTR  --- 31 cbr 532 [13a 2 5 800] ------- [3:0 2:0 30 2] [4] 3 0
r 15.359837986 _2_ AGT  --- 31 cbr 512 [13a 2 5 800] ------- [3:0 2:0 30 2] [4] 3 0
r 15.366276929 _7_ RTR  --- 32 cbr 532 [13a 7 4 800] ------- [1:0 6:0 31 7] [3] 2 0
SFf 15.366276929 _7_ 32 [1 -> 6] 1 to 6
f 15.366276929 _7_ RTR  --- 32 cbr 532 [13a 7 4 800] ------- [1:0 6:0 30 6] [3] 2 0
r 15.372050929 _6_ RTR  --- 32 cbr 532 [13a 6 7 800] ------- [1:0 6:0 30 6] [3] 3 0
r 15.372050929 _6_ AGT  --- 32 cbr 512 [13a 6 7 800] ------- [1:0 6:0 30 6] [3] 3 0
s 15.389729044 _0_ AGT  --- 33 cbr 512 [0 0 0 0] ------- [0:0 7:0 32 0] [5] 0 0
r 15.389729044 _0_ RTR  --- 33 cbr 512 [0 0 0 0] ------- [0:0 7:0 32 0] [5] 0 0
SFs 15.389729044 _0_ 33 [0 -> 7] 1(0) to 3 
s 15.389729044 _0_ RTR  --- 33 cbr 532 [0 0 0 0] ------- [0:0 7:0 32 3] [5] 0 0
r 15.395179044 _3_ RTR  --- 33 cbr 532 [13a 3 0 800] ------- [0:0 7:0 32 3] [5] 1 0
SFf 15.395179044 _3_ 33 [0 -> 7] 1 to 6
f 15.395179044 _3_ RTR  --- 33 cbr 532 [13a 3 0 800] ------- [0:0 7:0 31 6] [5] 1 0
r 15.401093044 _6_ RTR  --- 33 cbr 532 [13a 6 3 800] ------- [0:0 7:0 31 6] [5] 2 0
SFf 15.401093044 _6_ 33 [0 -> 7] 1 to 7
f 15.401093044 _6_ RTR  --- 33 cbr 532 [13a 6 3 800] ------- [0:0 7:0 30 7] [5] 2 0
r 15.406907044 _7_ RTR  --- 33 cbr 532 [13a 7 6 800] ------- [0:0 7:0 30 7] [5] 3 0
r 15.406907044 _7_ AGT  --- 33 cbr 512 [13a 7 6 800] ------- [0:0 7:0 30 7] [5] 3 0
s 15.435174035 _1_ AGT  --- 34 cbr 512 [0 0 0 0] ------- [1:0 6:0 32 0] [4] 0 0
r 15.435174035 _1_ RTR  --- 34 cbr 512 [0 0 0 0] ------- [1:0 6:0 32 0] [4] 0 0
SFs 15.435174035 _1_ 34 [1 -> 6] 1(0) to 4 
s 15.435174035 _1_ RTR  --- 34 cbr 532 [0 0 0 0] ------- [1:0 6:0 32 4] [4] 0 0
s 15.436754055 _3_ AGT  --- 35 cbr 512 [0 0 0 0] ------- [3:0 2:0 32 0] [5] 0 0
r 15.436754055 _3_ RTR  --- 35 cbr 512 [0 0 0 0] ------- [3:0 2:0 32 0] [5] 0 0
SFs 15.436754055 _3_ 35 [3 -> 2] 1(0) to 4 
s 15.436754055 _3_ RTR  --- 35 cbr 532 [0 0 0 0] ------- [3:0 2:0 32 4] [5] 0 0
r 15.440944035 _4_ RTR  --- 34 cbr 532 [13a 4 1 800] ------- [1:0 6:0 32 4] [4] 1 0
SFf 15.440944035 _4_ 34 [1 -> 6] 1 to 7
f 15.440944035 _4_ RTR  --- 34 cbr 532 [13a 4 1 800] ------- [1:0 6:0 31 7] [4] 1 0
s 15.445706230 _0_ AGT  --- 36 cbr 512 [0 0 0 0] ------- [0:0 7:0 32 0] [6] 0 0
r 15.445706230 _0_ RTR  --- 36 cbr 512 [0 0 0 0] ------- [0:0 7:0 32 0] [6] 0 0
SFs 15.445706230 _0_ 36 [0 -> 7] 1(0) to 3 
s 15.445706230 _0_ RTR  --- 36 cbr 532 [0 0 0 0] ------- [0:0 7:0 32 3] [6] 0 0
r 15.446888311 _4_ RTR  --- 35 cbr 532 [13a 4 3 800] ------- [3:0 2:0 32 4] [5] 1 0
SFf 15.446888311 _4_ 35 [3 -> 2] 1 to 5
f 15.446888311 _4_ RTR  --- 35 cbr 532 [13a 4 3 800] ------- [3:0 2:0 31 5] [5] 1 0
r 15.452782311 _7_ RTR  --- 34 cbr 532 [13a 7 4 800] ------- [1:0 6:0 31 7] [4] 2 0
SFf 15.452782311 _7_ 34 [1 -> 6] 1 to 6
f 15.452782311 _7_ RTR  --- 34 cbr 532 [13a 7 4 800] ------- [1:0 6:0 30 6] [4] 2 0
r 15.458596311 _6_ RTR  --- 34 cbr 532 [13a 6 7 800] ------- [1:0 6:0 30 6] [4] 3 0
r 15.458596311 _6_ AGT  --- 34 cbr 512 [13a 6 7 800] ------- [1:0 6:0 30 6] [4] 3 0
r 15.464735645 _3_ RTR  --- 36 cbr 532 [13a 3 0 800] ------- [0:0 7:0 32 3] [6] 1 0
SFf 15.464735645 _3_ 36 [0 -> 7] 1 to 6
f 15.464735645 _3_ RTR  --- 36 cbr 532 [13a 3 0 800] ------- [0:0 7:0 31 6] [6] 1 0
r 15.470679921 _5_ RTR  --- 35 cbr 532 [13a 5 4 800] ------- [3:0 2:0 31 5] [5] 2 0
SFf 15.470679921 _5_ 35 [3 -> 2] 1 to 2