Sconfig 0.00000 tap: on snoop: rts? on errs? on
Sconfig 0.00000 salvage: on !bd replies? on
Sconfig 0.00000 grat error: on grat reply: on
Sconfig 0.00000 $reply for props: on ring 0 search: on
Sconfig 0.00000 using MOBICACHE
s 15.000000000 _0_ AGT  --- 0 cbr 512 [0 0 0 0] ------- [0:0 16:0 32 0] [0] 0 0
r 15.000000000 _0_ RTR  --- 0 cbr 512 [0 0 0 0] ------- [0:0 16:0 32 0] [0] 0 0
s 15.003424088 _0_ RTR  --- 1 DSR 32 [0 0 0 0] ------- [0:255 16:255 32 0] 1 [1 1] [0 1 0 0->0] [0 0 0 0->0]
r 15.004496422 _3_ RTR  --- 1 DSR 32 [0 ffffffff 0 800] ------- [0:255 16:255 32 0] 1 [1 1] [0 1 0 0->0] [0 0 0 0->0]
r 15.004496755 _6_ RTR  --- 1 DSR 32 [0 ffffffff 0 800] ------- [0:255 16:255 32 0] 1 [1 1] [0 1 0 0->0] [0 0 0 0->0]
r 15.004496755 _1_ RTR  --- 1 DSR 32 [0 ffffffff 0 800] ------- [0:255 16:255 32 0] 1 [1 1] [0 1 0 0->0] [0 0 0 0->0]
r 15.004496834 _4_ RTR  --- 1 DSR 32 [0 ffffffff 0 800] ------- [0:255 16:255 32 0] 1 [1 1] [0 1 0 0->0] [0 0 0 0->0]
s 15.035188978 _0_ AGT  --- 3 cbr 512 [0 0 0 0] ------- [0:0 16:0 32 0] [1] 0 0
r 15.035188978 _0_ RTR  --- 3 cbr 512 [0 0 0 0] ------- [0:0 16:0 32 0] [1] 0 0
s 15.040042618 _0_ RTR  --- 4 DSR 32 [0 0 0 0] ------- [0:255 16:255 32 0] 1 [1 2] [0 2 0 0->16] [0 0 0 0->0]
r 15.041334951 _3_ RTR  --- 4 DSR 32 [0 ffffffff 0 800] ------- [0:255 16:255 32 0] 1 [1 2] [0 2 0 0->16] [0 0 0 0->0]
r 15.041335285 _6_ RTR  --- 4 DSR 32 [0 ffffffff 0 800] ------- [0:255 16:255 32 0] 1 [1 2] [0 2 0 0->16] [0 0 0 0->0]
r 15.041335285 _1_ RTR  --- 4 DSR 32 [0 ffffffff 0 800] ------- [0:255 16:255 32 0] 1 [1 2] [0 2 0 0->16] [0 0 0 0->0]
r 15.041335363 _4_ RTR  --- 4 DSR 32 [0 ffffffff 0 800] ------- [0:255 16:255 32 0] 1 [1 2] [0 2 0 0->16] [0 0 0 0->0]
f 15.041921532 _3_ RTR  --- 4 DSR 48 [0 ffffffff 0 800] ------- [0:255 16:255 32 0] 2 [1 2] [0 2 0 0->16] [0 0 0 0->0]
f 15.042883887 _6_ RTR  --- 4 DSR 48 [0 ffffffff 0 800] ------- [0:255 16:255 32 0] 2 [1 2] [0 2 0 0->16] [0 0 0 0->0]
r 15.043021865 _0_ RTR  --- 4 DSR 48 [0 ffffffff 3 800] ------- [0:255 16:255 32 0] 2 [1 2] [0 2 0 0->16] [0 0 0 0->0]
r 15.043021865 _6_ RTR  --- 4 DSR 48 [0 ffffffff 3 800] ------- [0:255 16:255 32 0] 2 [1 2] [0 2 0 0->16] [0 0 0 0->0]
r 15.043022199 _9_ RTR  --- 4 DSR 48 [0 ffffffff 3 800] ------- [0:255 16:255 32 0] 2 [1 2] [0 2 0 0->16] [0 0 0 0->0]
r 15.043022199 _4_ RTR  --- 4 DSR 48 [0 ffffffff 3 800] ------- [0:255 16:255 32 0] 2 [1 2] [0 2 0 0->16] [0 0 0 0->0]
r 15.043022277 _1_ RTR  --- 4 DSR 48 [0 ffffffff 3 800] ------- [0:255 16:255 32 0] 2 [1 2] [0 2 0 0->16] [0 0 0 0->0]
r 15.043022277 _7_ RTR  --- 4 DSR 48 [0 ffffffff 3 800] ------- [0:255 16:255 32 0] 2 [1 2] [0 2 0 0->16] [0 0 0 0->0]
r 15.044372199 _3_ RTR  --- 4 DSR 48 [0 ffffffff 6 800] ------- [0:255 16:255 32 0] 2 [1 2] [0 2 0 0->16] [0 0 0 0->0]
r 15.044372199 _9_ RTR  --- 4 DSR 48 [0 ffffffff 6 800] ------- [0:255 16:255 32 0] 2 [1 2] [0 2 0 0->16] [0 0 0 0->0]
r 15.044372532 _0_ RTR  --- 4 DSR 48 [0 ffffffff 6 800] ------- [0:255 16:255 32 0] 2 [1 2] [0 2 0 0->16] [0 0 0 0->0]
r 15.044372532 _12_ RTR  --- 4 DSR 48 [0 ffffffff 6 800] ------- [0:255 16:255 32 0] 2 [1 2] [0 2 0 0->16] [0 0 0 0->0]
r 15.044372532 _7_ RTR  --- 4 DSR 48 [0 ffffffff 6 800] ------- [0:255 16:255 32 0] 2 [1 2] [0 2 0 0->16] [0 0 0 0->0]
r 15.044372611 _4_ RTR  --- 4 DSR 48 [0 ffffffff 6 800] ------- [0:255 16:255 32 0] 2 [1 2] [0 2 0 0->16] [0 0 0 0->0]
r 15.044372611 _10_ RTR  --- 4 DSR 48 [0 ffffffff 6 800] ------- [0:255 16:255 32 0] 2 [1 2] [0 2 0 0->16] [0 0 0 0->0]
f 15.044439009 _9_ RTR  --- 4 DSR 68 [0 ffffffff 3 800] ------- [0:255 16:255 32 0] 3 [1 2] [0 2 0 0->16] [0 0 0 0->0]
f 15.045480139 _12_ RTR  --- 4 DSR 68 [0 ffffffff 6 800] ------- [0:255 16:255 32 0] 3 [1 2] [0 2 0 0->16] [0 0 0 0->0]
r 15.045779342 _6_ RTR  --- 4 DSR 68 [0 ffffffff 9 800] ------- [0:255 16:255 32 0] 3 [1 2] [0 2 0 0->16] [0 0 0 0->0]
r 15.045779342 _12_ RTR  --- 4 DSR 68 [0 ffffffff 9 800] ------- [0:255 16:255 32 0] 3 [1 2] [0 2 0 0->16] [0 0 0 0->0]
r 15.045779675 _3_ RTR  --- 4 DSR 68 [0 ffffffff 9 800] ------- [0:255 16:255 32 0] 3 [1 2] [0 2 0 0->16] [0 0 0 0->0]
r 15.045779675 _15_ RTR  --- 4 DSR 68 [0 ffffffff 9 800] ------- [0:255 16:255 32 0] 3 [1 2] [0 2 0 0->16] [0 0 0 0->0]
r 15.045779675 _10_ RTR  --- 4 DSR 68 [0 ffffffff 9 800] ------- [0:255 16:255 32 0] 3 [1 2] [0 2 0 0->16] [0 0 0 0->0]
r 15.045779754 _7_ RTR  --- 4 DSR 68 [0 ffffffff 9 800] ------- [0:255 16:255 32 0] 3 [1 2] [0 2 0 0->16] [0 0 0 0->0]
r 15.045779754 _13_ RTR  --- 4 DSR 68 [0 ffffffff 9 800] ------- [0:255 16:255 32 0] 3 [1 2] [0 2 0 0->16] [0 0 0 0->0]
r 15.047049675 _9_ RTR  --- 4 DSR 68 [0 ffffffff c 800] ------- [0:255 16:255 32 0] 3 [1 2] [0 2 0 0->16] [0 0 0 0->0]
r 15.047049675 _15_ RTR  --- 4 DSR 68 [0 ffffffff c 800] ------- [0:255 16:255 32 0] 3 [1 2] [0 2 0 0->16] [0 0 0 0->0]
r 15.047050009 _6_ RTR  --- 4 DSR 68 [0 ffffffff c 800] ------- [0:255 16:255 32 0] 3 [1 2] [0 2 0 0->16] [0 0 0 0->0]
r 15.047050009 _13_ RTR  --- 4 DSR 68 [0 ffffffff c 800] ------- [0:255 16:255 32 0] 3 [1 2] [0 2 0 0->16] [0 0 0 0->0]
r 15.047050087 _10_ RTR  --- 4 DSR 68 [0 ffffffff c 800] ------- [0:255 16:255 32 0] 3 [1 2] [0 2 0 0->16] [0 0 0 0->0]
r 15.047050087 _16_ RTR  --- 4 DSR 68 [0 ffffffff c 800] ------- [0:255 16:255 32 0] 3 [1 2] [0 2 0 0->16] [0 0 0 0->0]
f 15.047097576 _1_ RTR  --- 4 DSR 48 [0 ffffffff 0 800] ------- [0:255 16:255 32 0] 2 [1 2] [0 2 0 0->16] [0 0 0 0->0]
f 15.047596642 _4_ RTR  --- 4 DSR 48 [0 ffffffff 0 800] ------- [0:255 16:255 32 0] 2 [1 2] [0 2 0 0->16] [0 0 0 0->0]
f 15.048094727 _13_ RTR  --- 4 DSR 92 [0 ffffffff 9 800] ------- [0:255 16:255 32 0] 4 [1 2] [0 2 0 0->16] [0 0 0 0->0]
f 15.048563370 _15_ RTR  --- 4 DSR 92 [0 ffffffff 9 800] ------- [0:255 16:255 32 0] 4 [1 2] [0 2 0 0->16] [0 0 0 0->0]
r 15.048685166 _4_ RTR  --- 4 DSR 48 [0 ffffffff 1 800] ------- [0:255 16:255 32 0] 2 [1 2] [0 2 0 0->16] [0 0 0 0->0]
r 15.048685499 _0_ RTR  --- 4 DSR 48 [0 ffffffff 1 800] ------- [0:255 16:255 32 0] 2 [1 2] [0 2 0 0->16] [0 0 0 0->0]
r 15.048685499 _7_ RTR  --- 4 DSR 48 [0 ffffffff 1 800] ------- [0:255 16:255 32 0] 2 [1 2] [0 2 0 0->16] [0 0 0 0->0]
r 15.048685499 _2_ RTR  --- 4 DSR 48 [0 ffffffff 1 800] ------- [0:255 16:255 32 0] 2 [1 2] [0 2 0 0->16] [0 0 0 0->0]
r 15.048685578 _3_ RTR  --- 4 DSR 48 [0 ffffffff 1 800] ------- [0:255 16:255 32 0] 2 [1 2] [0 2 0 0->16] [0 0 0 0->0]
r 15.048685578 _5_ RTR  --- 4 DSR 48 [0 ffffffff 1 800] ------- [0:255 16:255 32 0] 2 [1 2] [0 2 0 0->16] [0 0 0 0->0]
r 15.049935499 _1_ RTR  --- 4 DSR 48 [0 ffffffff 4 800] ------- [0:255 16:255 32 0] 2 [1 2] [0 2 0 0->16] [0 0 0 0->0]
r 15.049935499 _7_ RTR  --- 4 DSR 48 [0 ffffffff 4 800] ------- [0:255 16:255 32 0] 2 [1 2] [0 2 0 0->16] [0 0 0 0->0]
r 15.049935833 _3_ RTR  --- 4 DSR 48 [0 ffffffff 4 800] ------- [0:255 16:255 32 0] 2 [1 2] [0 2 0 0->16] [0 0 0 0->0]
r 15.049935833 _10_ RTR  --- 4 DSR 48 [0 ffffffff 4 800] ------- [0:255 16:255 32 0] 2 [1 2] [0 2 0 0->16] [0 0 0 0->0]
r 15.049935833 _5_ RTR  --- 4 DSR 48 [0 ffffffff 4 800] ------- [0:255 16:255 32 0] 2 [1 2] [0 2 0 0->16] [0 0 0 0->0]
r 15.049935911 _6_ RTR  --- 4 DSR 48 [0 ffffffff 4 800] ------- [0:255 16:255 32 0] 2 [1 2] [0 2 0 0->16] [0 0 0 0->0]
r 15.049935911 _0_ RTR  --- 4 DSR 48 [0 ffffffff 4 800] ------- [0:255 16:255 32 0] 2 [1 2] [0 2 0 0->16] [0 0 0 0->0]
r 15.049935911 _2_ RTR  --- 4 DSR 48 [0 ffffffff 4 800] ------- [0:255 16:255 32 0] 2 [1 2] [0 2 0 0->16] [0 0 0 0->0]
r 15.049935911 _8_ RTR  --- 4 DSR 48 [0 ffffffff 4 800] ------- [0:255 16:255 32 0] 2 [1 2] [0 2 0 0->16] [0 0 0 0->0]
f 15.050459895 _2_ RTR  --- 4 DSR 68 [0 ffffffff 1 800] ------- [0:255 16:255 32 0] 3 [1 2] [0 2 0 0->16] [0 0 0 0->0]
f 15.050522494 _7_ RTR  --- 4 DSR 68 [0 ffffffff 3 800] ------- [0:255 16:255 32 0] 3 [1 2] [0 2 0 0->16] [0 0 0 0->0]
r 15.051622499 _10_ RTR  --- 4 DSR 92 [0 ffffffff d 800] ------- [0:255 16:255 32 0] 4 [1 2] [0 2 0 0->16] [0 0 0 0->0]
r 15.051622499 _16_ RTR  --- 4 DSR 92 [0 ffffffff d 800] ------- [0:255 16:255 32 0] 4 [1 2] [0 2 0 0->16] [0 0 0 0->0]
r 15.051622637 _18_ RTR  --- 4 DSR 92 [0 ffffffff d 800] ------- [0:255 16:255 32 0] 4 [1 2] [0 2 0 0->16] [0 0 0 0->0]
r 15.051622833 _7_ RTR  --- 4 DSR 92 [0 ffffffff d 800] ------- [0:255 16:255 32 0] 4 [1 2] [0 2 0 0->16] [0 0 0 0->0]
r 15.051622833 _12_ RTR  --- 4 DSR 92 [0 ffffffff d 800] ------- [0:255 16:255 32 0] 4 [1 2] [0 2 0 0->16] [0 0 0 0->0]
r 15.051622833 _14_ RTR  --- 4 DSR 92 [0 ffffffff d 800] ------- [0:255 16:255 32 0] 4 [1 2] [0 2 0 0->16] [0 0 0 0->0]
r 15.051622911 _15_ RTR  --- 4 DSR 92 [0 ffffffff d 800] ------- [0:255 16:255 32 0] 4 [1 2] [0 2 0 0->16] [0 0 0 0->0]
r 15.051622911 _9_ RTR  --- 4 DSR 92 [0 ffffffff d 800] ------- [0:255 16:255 32 0] 4 [1 2] [0 2 0 0->16] [0 0 0 0->0]
r 15.051622911 _11_ RTR  --- 4 DSR 92 [0 ffffffff d 800] ------- [0:255 16:255 32 0] 4 [1 2] [0 2 0 0->16] [0 0 0 0->0]
r 15.051622911 _17_ RTR  --- 4 DSR 92 [0 ffffffff d 800] ------- [0:255 16:255 32 0] 4 [1 2] [0 2 0 0->16] [0 0 0 0->0]
f 15.051820577 _10_ RTR  --- 4 DSR 68 [0 ffffffff 6 800] ------- [0:255 16:255 32 0] 3 [1 2] [0 2 0 0->16] [0 0 0 0->0]
s 15.052069311 _16_ RTR  --- 7 DSR 60 [0 0 0 0] ------- [16:255 0:255 254 12] 4 [0 2] [1 2 4 0->16] [0 0 0 0->0]
f 15.052405615 _11_ RTR  --- 4 DSR 120 [0 ffffffff d 800] ------- [0:255 16:255 32 0] 5 [1 2] [0 2 0 0->16] [0 0 0 0->0]
f 15.052703712 _14_ RTR  --- 4 DSR 120 [0 ffffffff d 800] ------- [0:255 16:255 32 0] 5 [1 2] [0 2 0 0->16] [0 0 0 0->0]
r 15.052753166 _4_ RTR  --- 4 DSR 68 [0 ffffffff 7 800] ------- [0:255 16:255 32 0] 3 [1 2] [0 2 0 0->16] [0 0 0 0->0]
r 15.052753166 _10_ RTR  --- 4 DSR 68 [0 ffffffff 7 800] ------- [0:255 16:255 32 0] 3 [1 2] [0 2 0 0->16] [0 0 0 0->0]
r 15.052753499 _1_ RTR  --- 4 DSR 68 [0 ffffffff 7 800] ------- [0:255 16:255 32 0] 3 [1 2] [0 2 0 0->16] [0 0 0 0->0]
r 15.052753499 _6_ RTR  --- 4 DSR 68 [0 ffffffff 7 800] ------- [0:255 16:255 32 0] 3 [1 2] [0 2 0 0->16] [0 0 0 0->0]
r 15.052753499 _13_ RTR  --- 4 DSR 68 [0 ffffffff 7 800] ------- [0:255 16:255 32 0] 3 [1 2] [0 2 0 0->16] [0 0 0 0->0]
r 15.052753499 _8_ RTR  --- 4 DSR 68 [0 ffffffff 7 800] ------- [0:255 16:255 32 0] 3 [1 2] [0 2 0 0->16] [0 0 0 0->0]
r 15.052753578 _9_ RTR  --- 4 DSR 68 [0 ffffffff 7 800] ------- [0:255 16:255 32 0] 3 [1 2] [0 2 0 0->16] [0 0 0 0->0]
r 15.052753578 _3_ RTR  --- 4 DSR 68 [0 ffffffff 7 800] ------- [0:255 16:255 32 0] 3 [1 2] [0 2 0 0->16] [0 0 0 0->0]
r 15.052753578 _5_ RTR  --- 4 DSR 68 [0 ffffffff 7 800] ------- [0:255 16:255 32 0] 3 [1 2] [0 2 0 0->16] [0 0 0 0->0]
r 15.052753578 _11_ RTR  --- 4 DSR 68 [0 ffffffff 7 800] ------- [0:255 16:255 32 0] 3 [1 2] [0 2 0 0->16] [0 0 0 0->0]
r 15.053803499 _7_ RTR  --- 4 DSR 68 [0 ffffffff a 800] ------- [0:255 16:255 32 0] 3 [1 2] [0 2 0 0->16] [0 0 0 0->0]
r 15.053803499 _13_ RTR  --- 4 DSR 68 [0 ffffffff a 800] ------- [0:255 16:255 32 0] 3 [1 2] [0 2 0 0->16] [0 0 0 0->0]
r 15.053803833 _4_ RTR  --- 4 DSR 68 [0 ffffffff a 800] ------- [0:255 16:255 32 0] 3 [1 2] [0 2 0 0->16] [0 0 0 0->0]
r 15.053803833 _9_ RTR  --- 4 DSR 68 [0 ffffffff a 800] ------- [0:255 16:255 32 0] 3 [1 2] [0 2 0 0->16] [0 0 0 0->0]
r 15.053803833 _16_ RTR  --- 4 DSR 68 [0 ffffffff a 800] ------- [0:255 16:255 32 0] 3 [1 2] [0 2 0 0->16] [0 0 0 0->0]
r 15.053803833 _11_ RTR  --- 4 DSR 68 [0 ffffffff a 800] ------- [0:255 16:255 32 0] 3 [1 2] [0 2 0 0->16] [0 0 0 0->0]
r 15.053803911 _12_ RTR  --- 4 DSR 68 [0 ffffffff a 800] ------- [0:255 16:255 32 0] 3 [1 2] [0 2 0 0->16] [0 0 0 0->0]
r 15.053803911 _6_ RTR  --- 4 DSR 68 [0 ffffffff a 800] ------- [0:255 16:255 32 0] 3 [1 2] [0 2 0 0->16] [0 0 0 0->0]
r 15.053803911 _18_ RTR  --- 4 DSR 68 [0 ffffffff a 800] ------- [0:255 16:255 32 0] 3 [1 2] [0 2 0 0->16] [0 0 0 0->0]
r 15.053803911 _8_ RTR  --- 4 DSR 68 [0 ffffffff a 800] ------- [0:255 16:255 32 0] 3 [1 2] [0 2 0 0->16] [0 0 0 0->0]
r 15.053803911 _14_ RTR  --- 4 DSR 68 [0 ffffffff a 800] ------- [0:255 16:255 32 0] 3 [1 2] [0 2 0 0->16] [0 0 0 0->0]
f 15.054332761 _18_ RTR  --- 4 DSR 120 [0 ffffffff d 800] ------- [0:255 16:255 32 0] 5 [1 2] [0 2 0 0->16] [0 0 0 0->0]
r 15.055448069 _12_ RTR  --- 7 DSR 60 [13a c 10 800] ------- [16:255 0:255 254 12] 4 [0 2] [1 2 4 0->16] [0 0 0 0->0]
f 15.055448069 _12_ RTR  --- 7 DSR 60 [13a c 10 800] ------- [16:255 0:255 253 6] 4 [0 2] [1 2 4 0->16] [0 0 0 0->0]
r 15.056983452 _5_ RTR  --- 4 DSR 68 [0 ffffffff 2 800] ------- [0:255 16:255 32 0] 3 [1 2] [0 2 0 0->16] [0 0 0 0->0]
r 15.056983785 _1_ RTR  --- 4 DSR 68 [0 ffffffff 2 800] ------- [0:255 16:255 32 0] 3 [1 2] [0 2 0 0->16] [0 0 0 0->0]
r 15.056983785 _8_ RTR  --- 4 DSR 68 [0 ffffffff 2 800] ------- [0:255 16:255 32 0] 3 [1 2] [0 2 0 0->16] [0 0 0 0->0]
f 15.057936315 _5_ RTR  --- 4 DSR 68 [0 ffffffff 1 800] ------- [0:255 16:255 32 0] 3 [1 2] [0 2 0 0->16] [0 0 0 0->0]
f 15.058623922 _17_ RTR  --- 4 DSR 120 [0 ffffffff d 800] ------- [0:255 16:255 32 0] 5 [1 2] [0 2 0 0->16] [0 0 0 0->0]
f 15.058839636 _8_ RTR  --- 4 DSR 68 [0 ffffffff 4 800] ------- [0:255 16:255 32 0] 3 [1 2] [0 2 0 0->16] [0 0 0 0->0]
r 15.058954785 _11_ RTR  --- 4 DSR 120 [0 ffffffff e 800] ------- [0:255 16:255 32 0] 5 [1 2] [0 2 0 0->16] [0 0 0 0->0]
r 15.058954785 _17_ RTR  --- 4 DSR 120 [0 ffffffff e 800] ------- [0:255 16:255 32 0] 5 [1 2] [0 2 0 0->16] [0 0 0 0->0]
r 15.058954923 _18_ RTR  --- 4 DSR 120 [0 ffffffff e 800] ------- [0:255 16:255 32 0] 5 [1 2] [0 2 0 0->16] [0 0 0 0->0]
r 15.058955118 _8_ RTR  --- 4 DSR 120 [0 ffffffff e 800] ------- [0:255 16:255 32 0] 5 [1 2] [0 2 0 0->16] [0 0 0 0->0]
r 15.058955118 _13_ RTR  --- 4 DSR 120 [0 ffffffff e 800] ------- [0:255 16:255 32 0] 5 [1 2] [0 2 0 0->16] [0 0 0 0->0]
r 15.058955197 _16_ RTR  --- 4 DSR 120 [0 ffffffff e 800] ------- [0:255 16:255 32 0] 5 [1 2] [0 2 0 0->16] [0 0 0 0->0]
r 15.058955197 _10_ RTR  --- 4 DSR 120 [0 ffffffff e 800] ------- [0:255 16:255 32 0] 5 [1 2] [0 2 0 0->16] [0 0 0 0->0]
s 15.059858757 _16_ RTR  --- 8 DSR 68 [0 0 0 0] ------- [16:255 0:255 254 13] 5 [0 2] [1 2 5 0->16] [0 0 0 0->0]
r 15.060105452 _5_ RTR  --- 4 DSR 68 [0 ffffffff 8 800] ------- [0:255 16:255 32 0] 3 [1 2] [0 2 0 0->16] [0 0 0 0->0]
r 15.060105452 _11_ RTR  --- 4 DSR 68 [0 ffffffff 8 800] ------- [0:255 16:255 32 0] 3 [1 2] [0 2 0 0->16] [0 0 0 0->0]
r 15.060105785 _2_ RTR  --- 4 DSR 68 [0 ffffffff 8 800] ------- [0:255 16:255 32 0] 3 [1 2] [0 2 0 0->16] [0 0 0 0->0]
r 15.060105785 _7_ RTR  --- 4 DSR 68 [0 ffffffff 8 800] ------- [0:255 16:255 32 0] 3 [1 2] [0 2 0 0->16] [0 0 0 0->0]
r 15.060105785 _14_ RTR  --- 4 DSR 68 [0 ffffffff 8 800] ------- [0:255 16:255 32 0] 3 [1 2] [0 2 0 0->16] [0 0 0 0->0]
r 15.060105864 _10_ RTR  --- 4 DSR 68 [0 ffffffff 8 800] ------- [0:255 16:255 32 0] 3 [1 2] [0 2 0 0->16] [0 0 0 0->0]
r 15.060105864 _4_ RTR  --- 4 DSR 68 [0 ffffffff 8 800] ------- [0:255 16:255 32 0] 3 [1 2] [0 2 0 0->16] [0 0 0 0->0]
r 15.061611785 _8_ RTR  --- 4 DSR 120 [0 ffffffff b 800] ------- [0:255 16:255 32 0] 5 [1 2] [0 2 0 0->16] [0 0 0 0->0]
r 15.061611785 _14_ RTR  --- 4 DSR 120 [0 ffffffff b 800] ------- [0:255 16:255 32 0] 5 [1 2] [0 2 0 0->16] [0 0 0 0->0]
r 15.061612118 _5_ RTR  --- 4 DSR 120 [0 ffffffff b 800] ------- [0:255 16:255 32 0] 5 [1 2] [0 2 0 0->16] [0 0 0 0->0]
r 15.061612118 _10_ RTR  --- 4 DSR 120 [0 ffffffff b 800] ------- [0:255 16:255 32 0] 5 [1 2] [0 2 0 0->16] [0 0 0 0->0]
r 15.061612118 _17_ RTR  --- 4 DSR 120 [0 ffffffff b 800] ------- [0:255 16:255 32 0] 5 [1 2] [0 2 0 0->16] [0 0 0 0->0]
r 15.061612197 _18_ RTR  --- 4 DSR 120 [0 ffffffff b 800] ------- [0:255 16:255 32 0] 5 [1 2] [0 2 0 0->16] [0 0 0 0->0]
r 15.061612197 _13_ RTR  --- 4 DSR 120 [0 ffffffff b 800] ------- [0:255 16:255 32 0] 5 [1 2] [0 2 0 0->16] [0 0 0 0->0]
r 15.061612197 _7_ RTR  --- 4 DSR 120 [0 ffffffff b 800] ------- [0:255 16:255 32 0] 5 [1 2] [0 2 0 0->16] [0 0 0 0->0]
r 15.062642452 _2_ RTR  --- 4 DSR 68 [0 ffffffff 5 800] ------- [0:255 16:255 32 0] 3 [1 2] [0 2 0 0->16] [0 0 0 0->0]
r 15.062642452 _8_ RTR  --- 4 DSR 68 [0 ffffffff 5 800] ------- [0:255 16:255 32 0] 3 [1 2] [0 2 0 0->16] [0 0 0 0->0]
r 15.062642785 _4_ RTR  --- 4 DSR 68 [0 ffffffff 5 800] ------- [0:255 16:255 32 0] 3 [1 2] [0 2 0 0->16] [0 0 0 0->0]
r 15.062642785 _11_ RTR  --- 4 DSR 68 [0 ffffffff 5 800] ------- [0:255 16:255 32 0] 3 [1 2] [0 2 0 0->16] [0 0 0 0->0]
r 15.062642864 _1_ RTR  --- 4 DSR 68 [0 ffffffff 5 800] ------- [0:255 16:255 32 0] 3 [1 2] [0 2 0 0->16] [0 0 0 0->0]
s 15.062705831 _16_ RTR  --- 9 DSR 60 [0 0 0 0] ------- [16:255 0:255 254 10] 4 [0 2] [1 2 4 0->16] [0 0 0 0->0]
r 15.065427276 _6_ RTR  --- 7 DSR 60 [13a 6 c 800] ------- [16:255 0:255 253 6] 4 [0 2] [1 2 4 0->16] [0 0 0 0->0]
f 15.065427276 _6_ RTR  --- 7 DSR 60 [13a 6 c 800] ------- [16:255 0:255 252 0] 4 [0 2] [1 2 4 0->16] [0 0 0 0->0]
r 15.067573023 _16_ RTR  --- 4 DSR 120 [0 ffffffff 12 800] ------- [0:255 16:255 32 0] 5 [1 2] [0 2 0 0->16] [0 0 0 0->0]
r 15.067573023 _17_ RTR  --- 4 DSR 120 [0 ffffffff 12 800] ------- [0:255 16:255 32 0] 5 [1 2] [0 2 0 0->16] [0 0 0 0->0]
r 15.067573161 _13_ RTR  --- 4 DSR 120 [0 ffffffff 12 800] ------- [0:255 16:255 32 0] 5 [1 2] [0 2 0 0->16] [0 0 0 0->0]
r 15.067573161 _14_ RTR  --- 4 DSR 120 [0 ffffffff 12 800] ------- [0:255 16:255 32 0] 5 [1 2] [0 2 0 0->16] [0 0 0 0->0]
r 15.067573435 _10_ RTR  --- 4 DSR 120 [0 ffffffff 12 800] ------- [0:255 16:255 32 0] 5 [1 2] [0 2 0 0->16] [0 0 0 0->0]
r 15.067573435 _11_ RTR  --- 4 DSR 120 [0 ffffffff 12 800] ------- [0:255 16:255 32 0] 5 [1 2] [0 2 0 0->16] [0 0 0 0->0]
s 15.068199901 _16_ RTR  --- 10 DSR 76 [0 0 0 0] ------- [16:255 0:255 254 14] 6 [0 2] [1 2 6 0->16] [0 0 0 0->0]
s 15.068806987 _0_ AGT  --- 12 cbr 512 [0 0 0 0] ------- [0:0 16:0 32 0] [2] 0 0
r 15.068806987 _0_ RTR  --- 12 cbr 512 [0 0 0 0] ------- [0:0 16:0 32 0] [2] 0 0
r 15.069179357 _14_ RTR  --- 4 DSR 120 [0 ffffffff 11 800] ------- [0:255 16:255 32 0] 5 [1 2] [0 2 0 0->16] [0 0 0 0->0]
r 15.069179357 _18_ RTR  --- 4 DSR 120 [0 ffffffff 11 800] ------- [0:255 16:255 32 0] 5 [1 2] [0 2 0 0->16] [0 0 0 0->0]
r 15.069179690 _11_ RTR  --- 4 DSR 120 [0 ffffffff 11 800] ------- [0:255 16:255 32 0] 5 [1 2] [0 2 0 0->16] [0 0 0 0->0]
r 15.069179690 _16_ RTR  --- 4 DSR 120 [0 ffffffff 11 800] ------- [0:255 16:255 32 0] 5 [1 2] [0 2 0 0->16] [0 0 0 0->0]
r 15.069179769 _13_ RTR  --- 4 DSR 120 [0 ffffffff 11 800] ------- [0:255 16:255 32 0] 5 [1 2] [0 2 0 0->16] [0 0 0 0->0]
r 15.070966690 _13_ RTR  --- 8 DSR 68 [13a d 10 800] ------- [16:255 0:255 254 13] 5 [0 2] [1 2 5 0->16] [0 0 0 0->0]
f 15.070966690 _13_ RTR  --- 8 DSR 68 [13a d 10 800] ------- [16:255 0:255 253 9] 5 [0 2] [1 2 5 0->16] [0 0 0 0->0]
r 15.073048926 _9_ RTR  --- 8 DSR 68 [13a 9 d 800] ------- [16:255 0:255 253 9] 5 [0 2] [1 2 5 0->16] [0 0 0 0->0]
f 15.073048926 _9_ RTR  --- 8 DSR 68 [13a 9 d 800] ------- [16:255 0:255 252 3] 5 [0 2] [1 2 5 0->16] [0 0 0 0->0]
r 15.075117124 _0_ RTR  --- 7 DSR 60 [13a 0 6 800] ------- [16:255 0:255 252 0] 4 [0 2] [1 2 4 0->16] [0 0 0 0->0]
SFESTs 15.075117124 _0_ 0 [0 -> 16] 1(1) to 6 [0 |6 12 16 ]
SFESTs 15.075117124 _0_ 3 [0 -> 16] 1(1) to 6 [0 |6 12 16 ]
SFESTs 15.075117124 _0_ 12 [0 -> 16] 1(1) to 6 [0 |6 12 16 ]
s 15.075117124 _0_ RTR  --- 0 cbr 556 [0 0 0 0] ------- [0:0 16:0 32 6] [0] 0 0
s 15.075767442 _16_ RTR  --- 11 DSR 76 [0 0 0 0] ------- [16:255 0:255 254 18] 6 [0 2] [1 2 6 0->16] [0 0 0 0->0]
s 15.076822126 _16_ RTR  --- 14 DSR 76 [0 0 0 0] ------- [16:255 0:255 254 17] 6 [0 2] [1 2 6 0->16] [0 0 0 0->0]
r 15.081623124 _6_ RTR  --- 0 cbr 556 [13a 6 0 800] ------- [0:0 16:0 32 6] [0] 1 0
f 15.081623124 _6_ RTR  --- 0 cbr 556 [13a 6 0 800] ------- [0:0 16:0 31 12] [0] 1 0
r 15.083735457 _3_ RTR  --- 8 DSR 68 [13a 3 9 800] ------- [16:255 0:255 252 3] 5 [0 2] [1 2 5 0->16] [0 0 0 0->0]
f 15.083735457 _3_ RTR  --- 8 DSR 68 [13a 3 9 800] ------- [16:255 0:255 251 0] 5 [0 2] [1 2 5 0->16] [0 0 0 0->0]
r 15.089961790 _12_ RTR  --- 0 cbr 556 [13a c 6 800] ------- [0:0 16:0 31 12] [0] 2 0
f 15.089961790 _12_ RTR  --- 0 cbr 556 [13a c 6 800] ------- [0:0 16:0 30 16] [0] 2 0
r 15.092378561 _14_ RTR  --- 10 DSR 76 [13a e 10 800] ------- [16:255 0:255 254 14] 6 [0 2] [1 2 6 0->16] [0 0 0 0->0]
f 15.092378561 _14_ RTR  --- 10 DSR 76 [13a e 10 800] ------- [16:255 0:255 253 13] 6 [0 2] [1 2 6 0->16] [0 0 0 0->0]
r 15.094505307 _17_ RTR  --- 14 DSR 76 [13a 11 10 800] ------- [16:255 0:255 254 17] 6 [0 2] [1 2 6 0->16] [0 0 0 0->0]
f 15.094505307 _17_ RTR  --- 14 DSR 76 [13a 11 10 800] ------- [16:255 0:255 253 13] 6 [0 2] [1 2 6 0->16] [0 0 0 0->0]
r 15.096737131 _0_ RTR  --- 8 DSR 68 [13a 0 3 800] ------- [16:255 0:255 251 0] 5 [0 2] [1 2 5 0->16] [0 0 0 0->0]
r 15.098994464 _13_ RTR  --- 10 DSR 76 [13a d e 800] ------- [16:255 0:255 253 13] 6 [0 2] [1 2 6 0->16] [0 0 0 0->0]
f 15.098994464 _13_ RTR  --- 10 DSR 76 [13a d e 800] ------- [16:255 0:255 252 9] 6 [0 2] [1 2 6 0->16] [0 0 0 0->0]
r 15.101180700 _9_ RTR  --- 10 DSR 76 [13a 9 d 800] ------- [16:255 0:255 252 9] 6 [0 2] [1 2 6 0->16] [0 0 0 0->0]
f 15.101180700 _9_ RTR  --- 10 DSR 76 [13a 9 d 800] ------- [16:255 0:255 251 3] 6 [0 2] [1 2 6 0->16] [0 0 0 0->0]
s 15.105117124 _0_ RTR  --- 3 cbr 556 [0 0 0 0] ------- [0:0 16:0 32 6] [1] 0 0
r 15.107127270 _16_ RTR  --- 0 cbr 556 [13a 10 c 800] ------- [0:0 16:0 30 16] [0] 3 0
r 15.107127270 _16_ AGT  --- 0 cbr 512 [13a 10 c 800] ------- [0:0 16:0 30 16] [0] 3 0
r 15.109332270 _18_ RTR  --- 11 DSR 76 [13a 12 10 800] ------- [16:255 0:255 254 18] 6 [0 2] [1 2 6 0->16] [0 0 0 0->0]
f 15.109332270 _18_ RTR  --- 11 DSR 76 [13a 12 10 800] ------- [16:255 0:255 253 13] 6 [0 2] [1 2 6 0->16] [0 0 0 0->0]
r 15.111750603 _10_ RTR  --- 9 DSR 60 [13a a 10 800] ------- [16:255 0:255 254 10] 4 [0 2] [1 2 4 0->16] [0 0 0 0->0]
f 15.111750603 _10_ RTR  --- 9 DSR 60 [13a a 10 800] ------- [16:255 0:255 253 6] 4 [0 2] [1 2 4 0->16] [0 0 0 0->0]
r 15.113836763 _13_ RTR  --- 11 DSR 76 [13a d 12 800] ------- [16:255 0:255 253 13] 6 [0 2] [1 2 6 0->16] [0 0 0 0->0]
f 15.113836763 _13_ RTR  --- 11 DSR 76 [13a d 12 800] ------- [16:255 0:255 252 9] 6 [0 2] [1 2 6 0->16] [0 0 0 0->0]
r 15.116042999 _9_ RTR  --- 11 DSR 76 [13a 9 d 800] ------- [16:255 0:255 252 9] 6 [0 2] [1 2 6 0->16] [0 0 0 0->0]
f 15.116042999 _9_ RTR  --- 11 DSR 76 [13a 9 d 800] ------- [16:255 0:255 251 3] 6 [0 2] [1 2 6 0->16] [0 0 0 0->0]
r 15.118081901 _6_ RTR  --- 9 DSR 60 [13a 6 a 800] ------- [16:255 0:255 253 6] 4 [0 2] [1 2 4 0->16] [0 0 0 0->0]
f 15.118081901 _6_ RTR  --- 9 DSR 60 [13a 6 a 800] ------- [16:255 0:255 252 0] 4 [0 2] [1 2 4 0->16] [0 0 0 0->0]
r 15.120308235 _3_ RTR  --- 10 DSR 76 [13a 3 9 800] ------- [16:255 0:255 251 3] 6 [0 2] [1 2 6 0->16] [0 0 0 0->0]
f 15.120308235 _3_ RTR  --- 10 DSR 76 [13a 3 9 800] ------- [16:255 0:255 250 0] 6 [0 2] [1 2 6 0->16] [0 0 0 0->0]
r 15.122346568 _0_ RTR  --- 9 DSR 60 [13a 0 6 800] ------- [16:255 0:255 252 0] 4 [0 2] [1 2 4 0->16] [0 0 0 0->0]
r 15.124471901 _0_ RTR  --- 10 DSR 76 [13a 0 3 800] ------- [16:255 0:255 250 0] 6 [0 2] [1 2 6 0->16] [0 0 0 0->0]
r 15.130697901 _6_ RTR  --- 3 cbr 556 [13a 6 0 800] ------- [0:0 16:0 32 6] [1] 1 0
f 15.130697901 _6_ RTR  --- 3 cbr 556 [13a 6 0 800] ------- [0:0 16:0 31 12] [1] 1 0
r 15.132914235 _3_ RTR  --- 11 DSR 76 [13a 3 9 800] ------- [16:255 0:255 251 3] 6 [0 2] [1 2 6 0->16] [0 0 0 0->0]
f 15.132914235 _3_ RTR  --- 11 DSR 76 [13a 3 9 800] ------- [16:255 0:255 250 0] 6 [0 2] [1 2 6 0->16] [0 0 0 0->0]
s 15.135117124 _0_ RTR  --- 12 cbr 556 [0 0 0 0] ------- [0:0 16:0 32 6] [2] 0 0
r 15.135139235 _0_ RTR  --- 11 DSR 76 [13a 0 3 800] ------- [16:255 0:255 250 0] 6 [0 2] [1 2 6 0->16] [0 0 0 0->0]
s 15.135440405 _0_ AGT  --- 18 cbr 512 [0 0 0 0] ------- [0:0 16:0 32 0] [3] 0 0
r 15.135440405 _0_ RTR  --- 18 cbr 512 [0 0 0 0] ------- [0:0 16:0 32 0] [3] 0 0
SFs 15.135440405 _0_ 18 [0 -> 16] 1(0) to 6 
s 15.135440405 _0_ RTR  --- 18 cbr 532 [0 0 0 0] ------- [0:0 16:0 32 6] [3] 0 0
r 15.141085901 _12_ RTR  --- 3 cbr 556 [13a c 6 800] ------- [0:0 16:0 31 12] [1] 2 0
f 15.141085901 _12_ RTR  --- 3 cbr 556 [13a c 6 800] ------- [0:0 16:0 30 16] [1] 2 0
r 15.147092137 _16_ RTR  --- 3 cbr 556 [13a 10 c 800] ------- [0:0 16:0 30 16] [1] 3 0
r 15.147092137 _16_ AGT  --- 3 cbr 512 [13a 10 c 800] ------- [0:0 16:0 30 16] [1] 3 0
r 15.153463933 _6_ RTR  --- 12 cbr 556 [13a 6 0 800] ------- [0:0 16:0 32 6] [2] 1 0
f 15.153463933 _6_ RTR  --- 12 cbr 556 [13a 6 0 800] ------- [0:0 16:0 31 12] [2] 1 0
r 15.159278599 _6_ RTR  --- 18 cbr 532 [13a 6 0 800] ------- [0:0 16:0 32 6] [3] 1 0
SFf 15.159278599 _6_ 18 [0 -> 16] 1 to 12
f 15.159278599 _6_ RTR  --- 18 cbr 532 [13a 6 0 800] ------- [0:0 16:0 31 12] [3] 1 0
r 15.165224599 _12_ RTR  --- 12 cbr 556 [13a c 6 800] ------- [0:0 16:0 31 12] [2] 2 0
f 15.165224599 _12_ RTR  --- 12 cbr 556 [13a c 6 800] ------- [0:0 16:0 30 16] [2] 2 0
r 15.171190835 _16_ RTR  --- 12 cbr 556 [13a 10 c 800] ------- [0:0 16:0 30 16] [2] 3 0
r 15.171190835 _16_ AGT  --- 12 cbr 512 [13a 10 c 800] ------- [0:0 16:0 30 16] [2] 3 0
r 15.177310037 _12_ RTR  --- 18 cbr 532 [13a c 6 800] ------- [0:0 16:0 31 12] [3] 2 0
SFf 15.177310037 _12_ 18 [0 -> 16] 1 to 16
f 15.177310037 _12_ RTR  --- 18 cbr 532 [13a c 6 800] ------- [0:0 16:0 30 16] [3] 2 0
r 15.183484273 _16_ RTR  --- 18 cbr 532 [13a 10 c 800] ------- [0:0 16:0 30 16] [3] 3 0
r 15.183484273 _16_ AGT  --- 18 cbr 512 [13a 10 c 800] ------- [0:0 16:0 30 16] [3] 3 0
r 15.191561138 _13_ RTR  --- 14 DSR 76 [13a d 11 800] ------- [16:255 0:255 253 13] 6 [0 2] [1 2 6 0->16] [0 0 0 0->0]
f 15.191561138 _13_ RTR  --- 14 DSR 76 [13a d 11 800] ------- [16:255 0:255 252 9] 6 [0 2] [1 2 6 0->16] [0 0 0 0->0]
r 15.193727374 _9_ RTR  --- 14 DSR 76 [13a 9 d 800] ------- [16:255 0:255 252 9] 6 [0 2] [1 2 6 0->16] [0 0 0 0->0]
f 15.193727374 _9_ RTR  --- 14 DSR 76 [13a 9 d 800] ------- [16:255 0:255 251 3] 6 [0 2] [1 2 6 0->16] [0 0 0 0->0]
r 15.196033374 _3_ RTR  --- 14 DSR 76 [13a 3 9 800] ------- [16:255 0:255 251 3] 6 [0 2] [1 2 6 0->16] [0 0 0 0->0]
f 15.196033374 _3_ RTR  --- 14 DSR 76 [13a 3 9 800] ------- [16:255 0:255 250 0] 6 [0 2] [1 2 6 0->16] [0 0 0 0->0]
r 15.198218374 _0_ RTR  --- 14 DSR 76 [13a 0 3 800] ------- [16:255 0:255 250 0] 6 [0 2] [1 2 6 0->16] [0 0 0 0->0]
s 15.207823277 _0_ AGT  --- 19 cbr 512 [0 0 0 0] ------- [0:0 16:0 32 0] [4] 0 0
r 15.207823277 _0_ RTR  --- 19 cbr 512 [0 0 0 0] ------- [0:0 16:0 32 0] [4] 0 0
SFs 15.207823277 _0_ 19 [0 -> 16] 1(0) to 6 
s 15.207823277 _0_ RTR  --- 19 cbr 532 [0 0 0 0] ------- [0:0 16:0 32 6] [4] 0 0
r 15.213833277 _6_ RTR  --- 19 cbr 532 [13a 6 0 800] ------- [0:0 16:0 32 6] [4] 1 0
SFf 15.213833277 _6_ 19 [0 -> 16] 1 to 12
f 15.213833277 _6_ RTR  --- 19 cbr 532 [13a 6 0 800] ------- [0:0 16:0 31 12] [4] 1 0
r 15.219967277 _12_ RTR  --- 19 cbr 532 [13a c 6 800] ------- [0:0 16:0 31 12] [4] 2 0
SFf 15.219967277 _12_ 19 [0 -> 16] 1 to 16
f 15.219967277 _12_ RTR  --- 19 cbr 532 [13a c 6 800] ------- [0:0 16:0 30 16] [4] 2 0
r 15.225841513 _16_ RTR  --- 19 cbr 532 [13a 10 c 800] ------- [0:0 16:0 30 16] [4] 3 0
r 15.225841513 _16_ AGT  --- 19 cbr 512 [13a 10 c 800] ------- [0:0 16:0 30 16] [4] 3 0
s 15.270962460 _0_ AGT  --- 20 cbr 512 [0 0 0 0] ------- [0:0 16:0 32 0] [5] 0 0
r 15.270962460 _0_ RTR  --- 20 cbr 512 [0 0 0 0] ------- [0:0 16:0 32 0] [5] 0 0
SFs 15.270962460 _0_ 20 [0 -> 16] 1(0) to 6 
s 15.270962460 _0_ RTR  --- 20 cbr 532 [0 0 0 0] ------- [0:0 16:0 32 6] [5] 0 0
r 15.276732460 _6_ RTR  --- 20 cbr 532 [13a 6 0 800] ------- [0:0 16:0 32 6] [5] 1 0
SFf 15.276732460 _6_ 20 [0 -> 16] 1 to 12
f 15.276732460 _6_ RTR  --- 20 cbr 532 [13a 6 0 800] ------- [0:0 16:0 31 12] [5] 1 0
r 15.283046460 _12_ RTR  --- 20 cbr 532 [13a c 6 800] ------- [0:0 16:0 31 12] [5] 2 0
SFf 15.283046460 _12_ 20 [0 -> 16] 1 to 16
f 15.283046460 _12_ RTR  --- 20 cbr 532 [13a c 6 800] ------- [0:0 16:0 30 16] [5] 2 0
r 15.288840696 _16_ RTR  --- 20 cbr 532 [13a 10 c 800] ------- [0:0 16:0 30 16] [5] 3 0
r 15.288840696 _16_ AGT  --- 20 cbr 512 [13a 10 c 800] ------- [0:0 16:0 30 16] [5] 3 0
s 15.308822710 _0_ AGT  --- 21 cbr 512 [0 0 0 0] ------- [0:0 16:0 32 0] [6] 0 0
r 15.308822710 _0_ RTR  --- 21 cbr 512 [0 0 0 0] ------- [0:0 16:0 32 0] [6] 0 0
SFs 15.308822710 _0_ 21 [0 -> 16] 1(0) to 6 
s 15.308822710 _0_ RTR  --- 21 cbr 532 [0 0 0 0] ------- [0:0 16:0 32 6] [6] 0 0
r 15.314392710 _6_ RTR  --- 21 cbr 532 [13a 6 0 800] ------- [0:0 16:0 32 6] [6] 1 0
SFf 15.314392710 _6_ 21 [0 -> 16] 1 to 12
f 15.314392710 _6_ RTR  --- 21 cbr 532 [13a 6 0 800] ------- [0:0 16:0 31 12] [6] 1 0
r 15.320186710 _12_ RTR  --- 21 cbr 532 [13a c 6 800] ------- [0:0 16:0 31 12] [6] 2 0
SFf 15.320186710 _12_ 21 [0 -> 16] 1 to 16
f 15.320186710 _12_ RTR  --- 21 cbr 532 [13a c 6 800] ------- [0:0 16:0 30 16] [6] 2 0
r 15.326480946 _16_ RTR  --- 21 cbr 532 [13a 10 c 800] ------- [0:0 16:0 30 16] [6] 3 0
r 15.326480946 _16_ AGT  --- 21 cbr 512 [13a 10 c 800] ------- [0:0 16:0 30 16] [6] 3 0
s 15.363963107 _0_ AGT  --- 22 cbr 512 [0 0 0 0] ------- [0:0 16:0 32 0] [7] 0 0
r 15.363963107 _0_ RTR  --- 22 cbr 512 [0 0 0 0] ------- [0:0 16:0 32 0] [7] 0 0
SFs 15.363963107 _0_ 22 [0 -> 16] 1(0) to 6 
s 15.363963107 _0_ RTR  --- 22 cbr 532 [0 0 0 0] ------- [0:0 16:0 32 6] [7] 0 0
r 15.369993107 _6_ RTR  --- 22 cbr 532 [13a 6 0 800] ------- [0:0 16:0 32 6] [7] 1 0
SFf 15.369993107 _6_ 22 [0 -> 16] 1 to 12
f 15.369993107 _6_ RTR  --- 22 cbr 532 [13a 6 0 800] ------- [0:0 16:0 31 12] [7] 1 0
r 15.376227107 _12_ RTR  --- 22 cbr 532 [13a c 6 800] ------- [0:0 16:0 31 12] [7] 2 0
SFf 15.376227107 _12_ 22 [0 -> 16] 1 to 16
f 15.376227107 _12_ RTR  --- 22 cbr 532 [13a c 6 800] ------- [0:0 16:0 30 16] [7] 2 0
r 15.382221343 _16_ RTR  --- 22 cbr 532 [13a 10 c 800] ------- [0:0 16:0 30 16] [7] 3 0
r 15.382221343 _16_ AGT  --- 22 cbr 512 [13a 10 c 800] ------- [0:0 16:0 30 16] [7] 3 0
s 15.431003585 _0_ AGT  --- 23 cbr 512 [0 0 0 0] ------- [0:0 16:0 32 0] [8] 0 0
r 15.431003585 _0_ RTR  --- 23 cbr 512 [0 0 0 0] ------- [0:0 16:0 32 0] [8] 0 0
SFs 15.431003585 _0_ 23 [0 -> 16] 1(0) to 6 
s 15.431003585 _0_ RTR  --- 23 cbr 532 [0 0 0 0] ------- [0:0 16:0 32 6] [8] 0 0