n -t * -s 0  -x 100 -y 0 -Z 0 -z 30  -v circle -c black
n -t * -s 1  -x 300 -y 0 -Z 0 -z 30  -v circle -c black
n -t * -s 2  -x 500 -y 0 -Z 0 -z 30  -v circle -c black
n -t * -s 3  -x 100 -y 100 -Z 0 -z 30  -v circle -c black
n -t * -s 4  -x 300 -y 100 -Z 0 -z 30  -v circle -c black
n -t * -s 5  -x 500 -y 100 -Z 0 -z 30  -v circle -c black
n -t * -s 6  -x 100 -y 200 -Z 0 -z 30  -v circle -c black
n -t * -s 7  -x 300 -y 200 -Z 0 -z 30  -v circle -c black
n -t * -s 8  -x 500 -y 200 -Z 0 -z 30  -v circle -c black
n -t * -s 9  -x 100 -y 300 -Z 0 -z 30  -v circle -c black
n -t * -s 10  -x 300 -y 300 -Z 0 -z 30  -v circle -c black
n -t * -s 11  -x 500 -y 300 -Z 0 -z 30  -v circle -c black
n -t * -s 12  -x 100 -y 400 -Z 0 -z 30  -v circle -c black
n -t * -s 13  -x 300 -y 400 -Z 0 -z 30  -v circle -c black
n -t * -s 14  -x 500 -y 400 -Z 0 -z 30  -v circle -c black
n -t * -s 15  -x 100 -y 500 -Z 0 -z 30  -v circle -c black
n -t * -s 16  -x 300 -y 500 -Z 0 -z 30  -v circle -c black
n -t * -s 17  -x 500 -y 500 -Z 0 -z 30  -v circle -c black
n -t * -s 18  -x 400 -y 500 -Z 0 -z 30  -v circle -c black
V -t * -v 1.0a5 -a 0
W -t * -x 500 -y 500
A -t * -n 1 -p 0 -o 0xffffffff -c 31 -a 1
A -t * -h 1 -m 2147483647 -s 0
+ -t 15.000000000 -s 0 -d -1 -p cbr -e 512 -c 2 -a 0 -i 0 -k AGT 
- -t 15.000000000 -s 0 -d -1 -p cbr -e 512 -c 2 -a 0 -i 0 -k AGT
h -t 15.000000000 -s 0 -d -1 -p cbr -e 512 -c 2 -a 0 -i 0 -k AGT
+ -t 15.003424088 -s 0 -d -1 -p DSR -e 32 -c 2 -a 0 -i 1 -k RTR 
- -t 15.003424088 -s 0 -d -1 -p DSR -e 32 -c 2 -a 0 -i 1 -k RTR
h -t 15.003424088 -s 0 -d -1 -p DSR -e 32 -c 2 -a 0 -i 1 -k RTR
+ -t 15.035188978 -s 0 -d -1 -p cbr -e 512 -c 2 -a 0 -i 3 -k AGT 
- -t 15.035188978 -s 0 -d -1 -p cbr -e 512 -c 2 -a 0 -i 3 -k AGT
h -t 15.035188978 -s 0 -d -1 -p cbr -e 512 -c 2 -a 0 -i 3 -k AGT
+ -t 15.040042618 -s 0 -d -1 -p DSR -e 32 -c 2 -a 0 -i 4 -k RTR 
- -t 15.040042618 -s 0 -d -1 -p DSR -e 32 -c 2 -a 0 -i 4 -k RTR
h -t 15.040042618 -s 0 -d -1 -p DSR -e 32 -c 2 -a 0 -i 4 -k RTR
+ -t 15.041921532 -s 3 -d -1 -p DSR -e 48 -c 2 -a 0 -i 4 -k RTR 
- -t 15.041921532 -s 3 -d -1 -p DSR -e 48 -c 2 -a 0 -i 4 -k RTR
h -t 15.041921532 -s 3 -d -1 -p DSR -e 48 -c 2 -a 0 -i 4 -k RTR
+ -t 15.042883887 -s 6 -d -1 -p DSR -e 48 -c 2 -a 0 -i 4 -k RTR 
- -t 15.042883887 -s 6 -d -1 -p DSR -e 48 -c 2 -a 0 -i 4 -k RTR
h -t 15.042883887 -s 6 -d -1 -p DSR -e 48 -c 2 -a 0 -i 4 -k RTR
+ -t 15.044439009 -s 9 -d -1 -p DSR -e 68 -c 2 -a 0 -i 4 -k RTR 
- -t 15.044439009 -s 9 -d -1 -p DSR -e 68 -c 2 -a 0 -i 4 -k RTR
h -t 15.044439009 -s 9 -d -1 -p DSR -e 68 -c 2 -a 0 -i 4 -k RTR
+ -t 15.045480139 -s 12 -d -1 -p DSR -e 68 -c 2 -a 0 -i 4 -k RTR 
- -t 15.045480139 -s 12 -d -1 -p DSR -e 68 -c 2 -a 0 -i 4 -k RTR
h -t 15.045480139 -s 12 -d -1 -p DSR -e 68 -c 2 -a 0 -i 4 -k RTR
+ -t 15.047097576 -s 1 -d -1 -p DSR -e 48 -c 2 -a 0 -i 4 -k RTR 
- -t 15.047097576 -s 1 -d -1 -p DSR -e 48 -c 2 -a 0 -i 4 -k RTR
h -t 15.047097576 -s 1 -d -1 -p DSR -e 48 -c 2 -a 0 -i 4 -k RTR
+ -t 15.047596642 -s 4 -d -1 -p DSR -e 48 -c 2 -a 0 -i 4 -k RTR 
- -t 15.047596642 -s 4 -d -1 -p DSR -e 48 -c 2 -a 0 -i 4 -k RTR
h -t 15.047596642 -s 4 -d -1 -p DSR -e 48 -c 2 -a 0 -i 4 -k RTR
+ -t 15.048094727 -s 13 -d -1 -p DSR -e 92 -c 2 -a 0 -i 4 -k RTR 
- -t 15.048094727 -s 13 -d -1 -p DSR -e 92 -c 2 -a 0 -i 4 -k RTR
h -t 15.048094727 -s 13 -d -1 -p DSR -e 92 -c 2 -a 0 -i 4 -k RTR
+ -t 15.048563370 -s 15 -d -1 -p DSR -e 92 -c 2 -a 0 -i 4 -k RTR 
- -t 15.048563370 -s 15 -d -1 -p DSR -e 92 -c 2 -a 0 -i 4 -k RTR
h -t 15.048563370 -s 15 -d -1 -p DSR -e 92 -c 2 -a 0 -i 4 -k RTR
+ -t 15.050459895 -s 2 -d -1 -p DSR -e 68 -c 2 -a 0 -i 4 -k RTR 
- -t 15.050459895 -s 2 -d -1 -p DSR -e 68 -c 2 -a 0 -i 4 -k RTR
h -t 15.050459895 -s 2 -d -1 -p DSR -e 68 -c 2 -a 0 -i 4 -k RTR
+ -t 15.050522494 -s 7 -d -1 -p DSR -e 68 -c 2 -a 0 -i 4 -k RTR 
- -t 15.050522494 -s 7 -d -1 -p DSR -e 68 -c 2 -a 0 -i 4 -k RTR
h -t 15.050522494 -s 7 -d -1 -p DSR -e 68 -c 2 -a 0 -i 4 -k RTR
+ -t 15.051820577 -s 10 -d -1 -p DSR -e 68 -c 2 -a 0 -i 4 -k RTR 
- -t 15.051820577 -s 10 -d -1 -p DSR -e 68 -c 2 -a 0 -i 4 -k RTR
h -t 15.051820577 -s 10 -d -1 -p DSR -e 68 -c 2 -a 0 -i 4 -k RTR
+ -t 15.052069311 -s 16 -d 12 -p DSR -e 60 -c 2 -a 0 -i 7 -k RTR 
- -t 15.052069311 -s 16 -d 12 -p DSR -e 60 -c 2 -a 0 -i 7 -k RTR
h -t 15.052069311 -s 16 -d 12 -p DSR -e 60 -c 2 -a 0 -i 7 -k RTR
+ -t 15.052405615 -s 11 -d -1 -p DSR -e 120 -c 2 -a 0 -i 4 -k RTR 
- -t 15.052405615 -s 11 -d -1 -p DSR -e 120 -c 2 -a 0 -i 4 -k RTR
h -t 15.052405615 -s 11 -d -1 -p DSR -e 120 -c 2 -a 0 -i 4 -k RTR
+ -t 15.052703712 -s 14 -d -1 -p DSR -e 120 -c 2 -a 0 -i 4 -k RTR 
- -t 15.052703712 -s 14 -d -1 -p DSR -e 120 -c 2 -a 0 -i 4 -k RTR
h -t 15.052703712 -s 14 -d -1 -p DSR -e 120 -c 2 -a 0 -i 4 -k RTR
+ -t 15.054332761 -s 18 -d -1 -p DSR -e 120 -c 2 -a 0 -i 4 -k RTR 
- -t 15.054332761 -s 18 -d -1 -p DSR -e 120 -c 2 -a 0 -i 4 -k RTR
h -t 15.054332761 -s 18 -d -1 -p DSR -e 120 -c 2 -a 0 -i 4 -k RTR
+ -t 15.055448069 -s 12 -d 6 -p DSR -e 60 -c 2 -a 0 -i 7 -k RTR 
- -t 15.055448069 -s 12 -d 6 -p DSR -e 60 -c 2 -a 0 -i 7 -k RTR
h -t 15.055448069 -s 12 -d 6 -p DSR -e 60 -c 2 -a 0 -i 7 -k RTR
+ -t 15.057936315 -s 5 -d -1 -p DSR -e 68 -c 2 -a 0 -i 4 -k RTR 
- -t 15.057936315 -s 5 -d -1 -p DSR -e 68 -c 2 -a 0 -i 4 -k RTR
h -t 15.057936315 -s 5 -d -1 -p DSR -e 68 -c 2 -a 0 -i 4 -k RTR
+ -t 15.058623922 -s 17 -d -1 -p DSR -e 120 -c 2 -a 0 -i 4 -k RTR 
- -t 15.058623922 -s 17 -d -1 -p DSR -e 120 -c 2 -a 0 -i 4 -k RTR
h -t 15.058623922 -s 17 -d -1 -p DSR -e 120 -c 2 -a 0 -i 4 -k RTR
+ -t 15.058839636 -s 8 -d -1 -p DSR -e 68 -c 2 -a 0 -i 4 -k RTR 
- -t 15.058839636 -s 8 -d -1 -p DSR -e 68 -c 2 -a 0 -i 4 -k RTR
h -t 15.058839636 -s 8 -d -1 -p DSR -e 68 -c 2 -a 0 -i 4 -k RTR
+ -t 15.059858757 -s 16 -d 13 -p DSR -e 68 -c 2 -a 0 -i 8 -k RTR 
- -t 15.059858757 -s 16 -d 13 -p DSR -e 68 -c 2 -a 0 -i 8 -k RTR
h -t 15.059858757 -s 16 -d 13 -p DSR -e 68 -c 2 -a 0 -i 8 -k RTR
+ -t 15.062705831 -s 16 -d 10 -p DSR -e 60 -c 2 -a 0 -i 9 -k RTR 
- -t 15.062705831 -s 16 -d 10 -p DSR -e 60 -c 2 -a 0 -i 9 -k RTR
h -t 15.062705831 -s 16 -d 10 -p DSR -e 60 -c 2 -a 0 -i 9 -k RTR
+ -t 15.065427276 -s 6 -d 0 -p DSR -e 60 -c 2 -a 0 -i 7 -k RTR 
- -t 15.065427276 -s 6 -d 0 -p DSR -e 60 -c 2 -a 0 -i 7 -k RTR
h -t 15.065427276 -s 6 -d 0 -p DSR -e 60 -c 2 -a 0 -i 7 -k RTR
+ -t 15.068199901 -s 16 -d 14 -p DSR -e 76 -c 2 -a 0 -i 10 -k RTR 
- -t 15.068199901 -s 16 -d 14 -p DSR -e 76 -c 2 -a 0 -i 10 -k RTR
h -t 15.068199901 -s 16 -d 14 -p DSR -e 76 -c 2 -a 0 -i 10 -k RTR
+ -t 15.068806987 -s 0 -d -1 -p cbr -e 512 -c 2 -a 0 -i 12 -k AGT 
- -t 15.068806987 -s 0 -d -1 -p cbr -e 512 -c 2 -a 0 -i 12 -k AGT
h -t 15.068806987 -s 0 -d -1 -p cbr -e 512 -c 2 -a 0 -i 12 -k AGT
+ -t 15.070966690 -s 13 -d 9 -p DSR -e 68 -c 2 -a 0 -i 8 -k RTR 
- -t 15.070966690 -s 13 -d 9 -p DSR -e 68 -c 2 -a 0 -i 8 -k RTR
h -t 15.070966690 -s 13 -d 9 -p DSR -e 68 -c 2 -a 0 -i 8 -k RTR
+ -t 15.073048926 -s 9 -d 3 -p DSR -e 68 -c 2 -a 0 -i 8 -k RTR 
- -t 15.073048926 -s 9 -d 3 -p DSR -e 68 -c 2 -a 0 -i 8 -k RTR
h -t 15.073048926 -s 9 -d 3 -p DSR -e 68 -c 2 -a 0 -i 8 -k RTR
+ -t 15.075117124 -s 0 -d 6 -p cbr -e 556 -c 2 -a 0 -i 0 -k RTR 
- -t 15.075117124 -s 0 -d 6 -p cbr -e 556 -c 2 -a 0 -i 0 -k RTR
h -t 15.075117124 -s 0 -d 6 -p cbr -e 556 -c 2 -a 0 -i 0 -k RTR
+ -t 15.075767442 -s 16 -d 18 -p DSR -e 76 -c 2 -a 0 -i 11 -k RTR 
- -t 15.075767442 -s 16 -d 18 -p DSR -e 76 -c 2 -a 0 -i 11 -k RTR
h -t 15.075767442 -s 16 -d 18 -p DSR -e 76 -c 2 -a 0 -i 11 -k RTR
+ -t 15.076822126 -s 16 -d 17 -p DSR -e 76 -c 2 -a 0 -i 14 -k RTR 
- -t 15.076822126 -s 16 -d 17 -p DSR -e 76 -c 2 -a 0 -i 14 -k RTR
h -t 15.076822126 -s 16 -d 17 -p DSR -e 76 -c 2 -a 0 -i 14 -k RTR
+ -t 15.081623124 -s 6 -d 12 -p cbr -e 556 -c 2 -a 0 -i 0 -k RTR 
- -t 15.081623124 -s 6 -d 12 -p cbr -e 556 -c 2 -a 0 -i 0 -k RTR
h -t 15.081623124 -s 6 -d 12 -p cbr -e 556 -c 2 -a 0 -i 0 -k RTR
+ -t 15.083735457 -s 3 -d 0 -p DSR -e 68 -c 2 -a 0 -i 8 -k RTR 
- -t 15.083735457 -s 3 -d 0 -p DSR -e 68 -c 2 -a 0 -i 8 -k RTR
h -t 15.083735457 -s 3 -d 0 -p DSR -e 68 -c 2 -a 0 -i 8 -k RTR
+ -t 15.089961790 -s 12 -d 16 -p cbr -e 556 -c 2 -a 0 -i 0 -k RTR 
- -t 15.089961790 -s 12 -d 16 -p cbr -e 556 -c 2 -a 0 -i 0 -k RTR
h -t 15.089961790 -s 12 -d 16 -p cbr -e 556 -c 2 -a 0 -i 0 -k RTR
+ -t 15.092378561 -s 14 -d 13 -p DSR -e 76 -c 2 -a 0 -i 10 -k RTR 
- -t 15.092378561 -s 14 -d 13 -p DSR -e 76 -c 2 -a 0 -i 10 -k RTR
h -t 15.092378561 -s 14 -d 13 -p DSR -e 76 -c 2 -a 0 -i 10 -k RTR
+ -t 15.094505307 -s 17 -d 13 -p DSR -e 76 -c 2 -a 0 -i 14 -k RTR 
- -t 15.094505307 -s 17 -d 13 -p DSR -e 76 -c 2 -a 0 -i 14 -k RTR
h -t 15.094505307 -s 17 -d 13 -p DSR -e 76 -c 2 -a 0 -i 14 -k RTR
+ -t 15.098994464 -s 13 -d 9 -p DSR -e 76 -c 2 -a 0 -i 10 -k RTR 
- -t 15.098994464 -s 13 -d 9 -p DSR -e 76 -c 2 -a 0 -i 10 -k RTR
h -t 15.098994464 -s 13 -d 9 -p DSR -e 76 -c 2 -a 0 -i 10 -k RTR
+ -t 15.101180700 -s 9 -d 3 -p DSR -e 76 -c 2 -a 0 -i 10 -k RTR 
- -t 15.101180700 -s 9 -d 3 -p DSR -e 76 -c 2 -a 0 -i 10 -k RTR
h -t 15.101180700 -s 9 -d 3 -p DSR -e 76 -c 2 -a 0 -i 10 -k RTR
+ -t 15.105117124 -s 0 -d 6 -p cbr -e 556 -c 2 -a 0 -i 3 -k RTR 
- -t 15.105117124 -s 0 -d 6 -p cbr -e 556 -c 2 -a 0 -i 3 -k RTR
h -t 15.105117124 -s 0 -d 6 -p cbr -e 556 -c 2 -a 0 -i 3 -k RTR
r -t 15.107127270 -s 16 -d 16 -p cbr -e 512 -c 2 -a 0 -i 0 -k AGT
+ -t 15.109332270 -s 18 -d 13 -p DSR -e 76 -c 2 -a 0 -i 11 -k RTR 
- -t 15.109332270 -s 18 -d 13 -p DSR -e 76 -c 2 -a 0 -i 11 -k RTR
h -t 15.109332270 -s 18 -d 13 -p DSR -e 76 -c 2 -a 0 -i 11 -k RTR
+ -t 15.111750603 -s 10 -d 6 -p DSR -e 60 -c 2 -a 0 -i 9 -k RTR 
- -t 15.111750603 -s 10 -d 6 -p DSR -e 60 -c 2 -a 0 -i 9 -k RTR
h -t 15.111750603 -s 10 -d 6 -p DSR -e 60 -c 2 -a 0 -i 9 -k RTR
+ -t 15.113836763 -s 13 -d 9 -p DSR -e 76 -c 2 -a 0 -i 11 -k RTR 
- -t 15.113836763 -s 13 -d 9 -p DSR -e 76 -c 2 -a 0 -i 11 -k RTR
h -t 15.113836763 -s 13 -d 9 -p DSR -e 76 -c 2 -a 0 -i 11 -k RTR
+ -t 15.116042999 -s 9 -d 3 -p DSR -e 76 -c 2 -a 0 -i 11 -k RTR 
- -t 15.116042999 -s 9 -d 3 -p DSR -e 76 -c 2 -a 0 -i 11 -k RTR
h -t 15.116042999 -s 9 -d 3 -p DSR -e 76 -c 2 -a 0 -i 11 -k RTR
+ -t 15.118081901 -s 6 -d 0 -p DSR -e 60 -c 2 -a 0 -i 9 -k RTR 
- -t 15.118081901 -s 6 -d 0 -p DSR -e 60 -c 2 -a 0 -i 9 -k RTR
h -t 15.118081901 -s 6 -d 0 -p DSR -e 60 -c 2 -a 0 -i 9 -k RTR
+ -t 15.120308235 -s 3 -d 0 -p DSR -e 76 -c 2 -a 0 -i 10 -k RTR 
- -t 15.120308235 -s 3 -d 0 -p DSR -e 76 -c 2 -a 0 -i 10 -k RTR
h -t 15.120308235 -s 3 -d 0 -p DSR -e 76 -c 2 -a 0 -i 10 -k RTR
+ -t 15.130697901 -s 6 -d 12 -p cbr -e 556 -c 2 -a 0 -i 3 -k RTR 
- -t 15.130697901 -s 6 -d 12 -p cbr -e 556 -c 2 -a 0 -i 3 -k RTR
h -t 15.130697901 -s 6 -d 12 -p cbr -e 556 -c 2 -a 0 -i 3 -k RTR
+ -t 15.132914235 -s 3 -d 0 -p DSR -e 76 -c 2 -a 0 -i 11 -k RTR 
- -t 15.132914235 -s 3 -d 0 -p DSR -e 76 -c 2 -a 0 -i 11 -k RTR
h -t 15.132914235 -s 3 -d 0 -p DSR -e 76 -c 2 -a 0 -i 11 -k RTR
+ -t 15.135117124 -s 0 -d 6 -p cbr -e 556 -c 2 -a 0 -i 12 -k RTR 
- -t 15.135117124 -s 0 -d 6 -p cbr -e 556 -c 2 -a 0 -i 12 -k RTR
h -t 15.135117124 -s 0 -d 6 -p cbr -e 556 -c 2 -a 0 -i 12 -k RTR
+ -t 15.135440405 -s 0 -d -1 -p cbr -e 512 -c 2 -a 0 -i 18 -k AGT 
- -t 15.135440405 -s 0 -d -1 -p cbr -e 512 -c 2 -a 0 -i 18 -k AGT
h -t 15.135440405 -s 0 -d -1 -p cbr -e 512 -c 2 -a 0 -i 18 -k AGT
+ -t 15.135440405 -s 0 -d 6 -p cbr -e 532 -c 2 -a 0 -i 18 -k RTR 
- -t 15.135440405 -s 0 -d 6 -p cbr -e 532 -c 2 -a 0 -i 18 -k RTR
h -t 15.135440405 -s 0 -d 6 -p cbr -e 532 -c 2 -a 0 -i 18 -k RTR
+ -t 15.141085901 -s 12 -d 16 -p cbr -e 556 -c 2 -a 0 -i 3 -k RTR 
- -t 15.141085901 -s 12 -d 16 -p cbr -e 556 -c 2 -a 0 -i 3 -k RTR
h -t 15.141085901 -s 12 -d 16 -p cbr -e 556 -c 2 -a 0 -i 3 -k RTR
r -t 15.147092137 -s 16 -d 16 -p cbr -e 512 -c 2 -a 0 -i 3 -k AGT
+ -t 15.153463933 -s 6 -d 12 -p cbr -e 556 -c 2 -a 0 -i 12 -k RTR 
- -t 15.153463933 -s 6 -d 12 -p cbr -e 556 -c 2 -a 0 -i 12 -k RTR
h -t 15.153463933 -s 6 -d 12 -p cbr -e 556 -c 2 -a 0 -i 12 -k RTR
+ -t 15.159278599 -s 6 -d 12 -p cbr -e 532 -c 2 -a 0 -i 18 -k RTR 
- -t 15.159278599 -s 6 -d 12 -p cbr -e 532 -c 2 -a 0 -i 18 -k RTR
h -t 15.159278599 -s 6 -d 12 -p cbr -e 532 -c 2 -a 0 -i 18 -k RTR
+ -t 15.165224599 -s 12 -d 16 -p cbr -e 556 -c 2 -a 0 -i 12 -k RTR 
- -t 15.165224599 -s 12 -d 16 -p cbr -e 556 -c 2 -a 0 -i 12 -k RTR
h -t 15.165224599 -s 12 -d 16 -p cbr -e 556 -c 2 -a 0 -i 12 -k RTR
r -t 15.171190835 -s 16 -d 16 -p cbr -e 512 -c 2 -a 0 -i 12 -k AGT
+ -t 15.177310037 -s 12 -d 16 -p cbr -e 532 -c 2 -a 0 -i 18 -k RTR 
- -t 15.177310037 -s 12 -d 16 -p cbr -e 532 -c 2 -a 0 -i 18 -k RTR
h -t 15.177310037 -s 12 -d 16 -p cbr -e 532 -c 2 -a 0 -i 18 -k RTR
r -t 15.183484273 -s 16 -d 16 -p cbr -e 512 -c 2 -a 0 -i 18 -k AGT
+ -t 15.191561138 -s 13 -d 9 -p DSR -e 76 -c 2 -a 0 -i 14 -k RTR 
- -t 15.191561138 -s 13 -d 9 -p DSR -e 76 -c 2 -a 0 -i 14 -k RTR
h -t 15.191561138 -s 13 -d 9 -p DSR -e 76 -c 2 -a 0 -i 14 -k RTR
+ -t 15.193727374 -s 9 -d 3 -p DSR -e 76 -c 2 -a 0 -i 14 -k RTR 
- -t 15.193727374 -s 9 -d 3 -p DSR -e 76 -c 2 -a 0 -i 14 -k RTR
h -t 15.193727374 -s 9 -d 3 -p DSR -e 76 -c 2 -a 0 -i 14 -k RTR
+ -t 15.196033374 -s 3 -d 0 -p DSR -e 76 -c 2 -a 0 -i 14 -k RTR 
- -t 15.196033374 -s 3 -d 0 -p DSR -e 76 -c 2 -a 0 -i 14 -k RTR
h -t 15.196033374 -s 3 -d 0 -p DSR -e 76 -c 2 -a 0 -i 14 -k RTR
+ -t 15.207823277 -s 0 -d -1 -p cbr -e 512 -c 2 -a 0 -i 19 -k AGT 
- -t 15.207823277 -s 0 -d -1 -p cbr -e 512 -c 2 -a 0 -i 19 -k AGT
h -t 15.207823277 -s 0 -d -1 -p cbr -e 512 -c 2 -a 0 -i 19 -k AGT
+ -t 15.207823277 -s 0 -d 6 -p cbr -e 532 -c 2 -a 0 -i 19 -k RTR 
- -t 15.207823277 -s 0 -d 6 -p cbr -e 532 -c 2 -a 0 -i 19 -k RTR
h -t 15.207823277 -s 0 -d 6 -p cbr -e 532 -c 2 -a 0 -i 19 -k RTR
+ -t 15.213833277 -s 6 -d 12 -p cbr -e 532 -c 2 -a 0 -i 19 -k RTR 
- -t 15.213833277 -s 6 -d 12 -p cbr -e 532 -c 2 -a 0 -i 19 -k RTR
h -t 15.213833277 -s 6 -d 12 -p cbr -e 532 -c 2 -a 0 -i 19 -k RTR
+ -t 15.219967277 -s 12 -d 16 -p cbr -e 532 -c 2 -a 0 -i 19 -k RTR 
- -t 15.219967277 -s 12 -d 16 -p cbr -e 532 -c 2 -a 0 -i 19 -k RTR
h -t 15.219967277 -s 12 -d 16 -p cbr -e 532 -c 2 -a 0 -i 19 -k RTR
r -t 15.225841513 -s 16 -d 16 -p cbr -e 512 -c 2 -a 0 -i 19 -k AGT
+ -t 15.270962460 -s 0 -d -1 -p cbr -e 512 -c 2 -a 0 -i 20 -k AGT 
- -t 15.270962460 -s 0 -d -1 -p cbr -e 512 -c 2 -a 0 -i 20 -k AGT
h -t 15.270962460 -s 0 -d -1 -p cbr -e 512 -c 2 -a 0 -i 20 -k AGT
+ -t 15.270962460 -s 0 -d 6 -p cbr -e 532 -c 2 -a 0 -i 20 -k RTR 
- -t 15.270962460 -s 0 -d 6 -p cbr -e 532 -c 2 -a 0 -i 20 -k RTR
h -t 15.270962460 -s 0 -d 6 -p cbr -e 532 -c 2 -a 0 -i 20 -k RTR
+ -t 15.276732460 -s 6 -d 12 -p cbr -e 532 -c 2 -a 0 -i 20 -k RTR 
- -t 15.276732460 -s 6 -d 12 -p cbr -e 532 -c 2 -a 0 -i 20 -k RTR
h -t 15.276732460 -s 6 -d 12 -p cbr -e 532 -c 2 -a 0 -i 20 -k RTR
+ -t 15.283046460 -s 12 -d 16 -p cbr -e 532 -c 2 -a 0 -i 20 -k RTR 
- -t 15.283046460 -s 12 -d 16 -p cbr -e 532 -c 2 -a 0 -i 20 -k RTR
h -t 15.283046460 -s 12 -d 16 -p cbr -e 532 -c 2 -a 0 -i 20 -k RTR
r -t 15.288840696 -s 16 -d 16 -p cbr -e 512 -c 2 -a 0 -i 20 -k AGT
+ -t 15.308822710 -s 0 -d -1 -p cbr -e 512 -c 2 -a 0 -i 21 -k AGT 
- -t 15.308822710 -s 0 -d -1 -p cbr -e 512 -c 2 -a 0 -i 21 -k AGT
h -t 15.308822710 -s 0 -d -1 -p cbr -e 512 -c 2 -a 0 -i 21 -k AGT
+ -t 15.308822710 -s 0 -d 6 -p cbr -e 532 -c 2 -a 0 -i 21 -k RTR 
- -t 15.308822710 -s 0 -d 6 -p cbr -e 532 -c 2 -a 0 -i 21 -k RTR
h -t 15.308822710 -s 0 -d 6 -p cbr -e 532 -c 2 -a 0 -i 21 -k RTR
+ -t 15.314392710 -s 6 -d 12 -p cbr -e 532 -c 2 -a 0 -i 21 -k RTR 
- -t 15.314392710 -s 6 -d 12 -p cbr -e 532 -c 2 -a 0 -i 21 -k RTR
h -t 15.314392710 -s 6 -d 12 -p cbr -e 532 -c 2 -a 0 -i 21 -k RTR
+ -t 15.320186710 -s 12 -d 16 -p cbr -e 532 -c 2 -a 0 -i 21 -k RTR 
- -t 15.320186710 -s 12 -d 16 -p cbr -e 532 -c 2 -a 0 -i 21 -k RTR
h -t 15.320186710 -s 12 -d 16 -p cbr -e 532 -c 2 -a 0 -i 21 -k RTR
r -t 15.326480946 -s 16 -d 16 -p cbr -e 512 -c 2 -a 0 -i 21 -k AGT
+ -t 15.363963107 -s 0 -d -1 -p cbr -e 512 -c 2 -a 0 -i 22 -k AGT 
- -t 15.363963107 -s 0 -d -1 -p cbr -e 512 -c 2 -a 0 -i 22 -k AGT
h -t 15.363963107 -s 0 -d -1 -p cbr -e 512 -c 2 -a 0 -i 22 -k AGT
+ -t 15.363963107 -s 0 -d 6 -p cbr -e 532 -c 2 -a 0 -i 22 -k RTR 
- -t 15.363963107 -s 0 -d 6 -p cbr -e 532 -c 2 -a 0 -i 22 -k RTR
h -t 15.363963107 -s 0 -d 6 -p cbr -e 532 -c 2 -a 0 -i 22 -k RTR
+ -t 15.369993107 -s 6 -d 12 -p cbr -e 532 -c 2 -a 0 -i 22 -k RTR 
- -t 15.369993107 -s 6 -d 12 -p cbr -e 532 -c 2 -a 0 -i 22 -k RTR
h -t 15.369993107 -s 6 -d 12 -p cbr -e 532 -c 2 -a 0 -i 22 -k RTR
+ -t 15.376227107 -s 12 -d 16 -p cbr -e 532 -c 2 -a 0 -i 22 -k RTR 
- -t 15.376227107 -s 12 -d 16 -p cbr -e 532 -c 2 -a 0 -i 22 -k RTR
h -t 15.376227107 -s 12 -d 16 -p cbr -e 532 -c 2 -a 0 -i 22 -k RTR
r -t 15.382221343 -s 16 -d 16 -p cbr -e 512 -c 2 -a 0 -i 22 -k AGT
+ -t 15.431003585 -s 0 -d -1 -p cbr -e 512 -c 2 -a 0 -i 23 -k AGT 
- -t 15.431003585 -s 0 -d -1 -p cbr -e 512 -c 2 -a 0 -i 23 -k AGT
h -t 15.431003585 -s 0 -d -1 -p cbr -e 512 -c 2 -a 0 -i 23 -k AGT
+ -t 15.431003585 -s 0 -d 6 -p cbr -e 532 -c 2 -a 0 -i 23 -k RTR 
- -t 15.431003585 -s 0 -d 6 -p cbr -e 532 -c 2 -a 0 -i 23 -k RTR
h -t 15.431003585 -s 0 -d 6 -p cbr -e 532 -c 2 -a 0 -i 23 -k RTR
+ -t 15.436893585 -s 6 -d 12 -p cbr -e 532 -c 2 -a 0 -i 23 -k RTR 
- -t 15.436893585 -s 6 -d 12 -p cbr -e 532 -c 2 -a 0 -i 23 -k RTR
h -t 15.436893585 -s 6 -d 12 -p cbr -e 532 -c 2 -a 0 -i 23 -k RTR
+ -t 15.442787585 -s 12 -d 16 -p cbr -e 532 -c 2 -a 0 -i 23 -k RTR 
- -t 15.442787585 -s 12 -d 16 -p cbr -e 532 -c 2 -a 0 -i 23 -k RTR
h -t 15.442787585 -s 12 -d 16 -p cbr -e 532 -c 2 -a 0 -i 23 -k RTR
r -t 15.448641821 -s 16 -d 16 -p cbr -e 512 -c 2 -a 0 -i 23 -k AGT
+ -t 15.487120859 -s 0 -d -1 -p cbr -e 512 -c 2 -a 0 -i 24 -k AGT 
- -t 15.487120859 -s 0 -d -1 -p cbr -e 512 -c 2 -a 0 -i 24 -k AGT
h -t 15.487120859 -s 0 -d -1 -p cbr -e 512 -c 2 -a 0 -i 24 -k AGT
+ -t 15.487120859 -s 0 -d 6 -p cbr -e 532 -c 2 -a 0 -i 24 -k RTR 
- -t 15.487120859 -s 0 -d 6 -p cbr -e 532 -c 2 -a 0 -i 24 -k RTR
h -t 15.487120859 -s 0 -d 6 -p cbr -e 532 -c 2 -a 0 -i 24 -k RTR
+ -t 15.492850859 -s 6 -d 12 -p cbr -e 532 -c 2 -a 0 -i 24 -k RTR 
- -t 15.492850859 -s 6 -d 12 -p cbr -e 532 -c 2 -a 0 -i 24 -k RTR
h -t 15.492850859 -s 6 -d 12 -p cbr -e 532 -c 2 -a 0 -i 24 -k RTR
+ -t 15.498664859 -s 12 -d 16 -p cbr -e 532 -c 2 -a 0 -i 24 -k RTR 
- -t 15.498664859 -s 12 -d 16 -p cbr -e 532 -c 2 -a 0 -i 24 -k RTR
h -t 15.498664859 -s 12 -d 16 -p cbr -e 532 -c 2 -a 0 -i 24 -k RTR
r -t 15.504479095 -s 16 -d 16 -p cbr -e 512 -c 2 -a 0 -i 24 -k AGT
+ -t 15.548098774 -s 0 -d -1 -p cbr -e 512 -c 2 -a 0 -i 25 -k AGT 
- -t 15.548098774 -s 0 -d -1 -p cbr -e 512 -c 2 -a 0 -i 25 -k AGT
h -t 15.548098774 -s 0 -d -1 -p cbr -e 512 -c 2 -a 0 -i 25 -k AGT
+ -t 15.548098774 -s 0 -d 6 -p cbr -e 532 -c 2 -a 0 -i 25 -k RTR 
- -t 15.548098774 -s 0 -d 6 -p cbr -e 532 -c 2 -a 0 -i 25 -k RTR
h -t 15.548098774 -s 0 -d 6 -p cbr -e 532 -c 2 -a 0 -i 25 -k RTR
+ -t 15.553588774 -s 6 -d 12 -p cbr -e 532 -c 2 -a 0 -i 25 -k RTR 
- -t 15.553588774 -s 6 -d 12 -p cbr -e 532 -c 2 -a 0 -i 25 -k RTR
h -t 15.553588774 -s 6 -d 12 -p cbr -e 532 -c 2 -a 0 -i 25 -k RTR
+ -t 15.559902774 -s 12 -d 16 -p cbr -e 532 -c 2 -a 0 -i 25 -k RTR 
- -t 15.559902774 -s 12 -d 16 -p cbr -e 532 -c 2 -a 0 -i 25 -k RTR
h -t 15.559902774 -s 12 -d 16 -p cbr -e 532 -c 2 -a 0 -i 25 -k RTR
r -t 15.566217010 -s 16 -d 16 -p cbr -e 512 -c 2 -a 0 -i 25 -k AGT
+ -t 15.581895060 -s 0 -d -1 -p cbr -e 512 -c 2 -a 0 -i 26 -k AGT 
- -t 15.581895060 -s 0 -d -1 -p cbr -e 512 -c 2 -a 0 -i 26 -k AGT
h -t 15.581895060 -s 0 -d -1 -p cbr -e 512 -c 2 -a 0 -i 26 -k AGT
+ -t 15.581895060 -s 0 -d 6 -p cbr -e 532 -c 2 -a 0 -i 26 -k RTR 
- -t 15.581895060 -s 0 -d 6 -p cbr -e 532 -c 2 -a 0 -i 26 -k RTR
h -t 15.581895060 -s 0 -d 6 -p cbr -e 532 -c 2 -a 0 -i 26 -k RTR
+ -t 15.587945060 -s 6 -d 12 -p cbr -e 532 -c 2 -a 0 -i 26 -k RTR 
- -t 15.587945060 -s 6 -d 12 -p cbr -e 532 -c 2 -a 0 -i 26 -k RTR
h -t 15.587945060 -s 6 -d 12 -p cbr -e 532 -c 2 -a 0 -i 26 -k RTR
+ -t 15.594139060 -s 12 -d 16 -p cbr -e 532 -c 2 -a 0 -i 26 -k RTR 
- -t 15.594139060 -s 12 -d 16 -p cbr -e 532 -c 2 -a 0 -i 26 -k RTR
h -t 15.594139060 -s 12 -d 16 -p cbr -e 532 -c 2 -a 0 -i 26 -k RTR
r -t 15.599993296 -s 16 -d 16 -p cbr -e 512 -c 2 -a 0 -i 26 -k AGT
+ -t 15.655124209 -s 0 -d -1 -p cbr -e 512 -c 2 -a 0 -i 27 -k AGT 
- -t 15.655124209 -s 0 -d -1 -p cbr -e 512 -c 2 -a 0 -i 27 -k AGT
h -t 15.655124209 -s 0 -d -1 -p cbr -e 512 -c 2 -a 0 -i 27 -k AGT
+ -t 15.655124209 -s 0 -d 6 -p cbr -e 532 -c 2 -a 0 -i 27 -k RTR 
- -t 15.655124209 -s 0 -d 6 -p cbr -e 532 -c 2 -a 0 -i 27 -k RTR
h -t 15.655124209 -s 0 -d 6 -p cbr -e 532 -c 2 -a 0 -i 27 -k RTR
+ -t 15.660774209 -s 6 -d 12 -p cbr -e 532 -c 2 -a 0 -i 27 -k RTR 
- -t 15.660774209 -s 6 -d 12 -p cbr -e 532 -c 2 -a 0 -i 27 -k RTR
h -t 15.660774209 -s 6 -d 12 -p cbr -e 532 -c 2 -a 0 -i 27 -k RTR
+ -t 15.666528209 -s 12 -d 16 -p cbr -e 532 -c 2 -a 0 -i 27 -k RTR 
- -t 15.666528209 -s 12 -d 16 -p cbr -e 532 -c 2 -a 0 -i 27 -k RTR
h -t 15.666528209 -s 12 -d 16 -p cbr -e 532 -c 2 -a 0 -i 27 -k RTR
r -t 15.672582445 -s 16 -d 16 -p cbr -e 512 -c 2 -a 0 -i 27 -k AGT
+ -t 15.681566252 -s 0 -d -1 -p cbr -e 512 -c 2 -a 0 -i 28 -k AGT 
- -t 15.681566252 -s 0 -d -1 -p cbr -e 512 -c 2 -a 0 -i 28 -k AGT
h -t 15.681566252 -s 0 -d -1 -p cbr -e 512 -c 2 -a 0 -i 28 -k AGT
+ -t 15.681566252 -s 0 -d 6 -p cbr -e 532 -c 2 -a 0 -i 28 -k RTR 
- -t 15.681566252 -s 0 -d 6 -p cbr -e 532 -c 2 -a 0 -i 28 -k RTR
h -t 15.681566252 -s 0 -d 6 -p cbr -e 532 -c 2 -a 0 -i 28 -k RTR
+ -t 15.687116252 -s 6 -d 12 -p cbr -e 532 -c 2 -a 0 -i 28 -k RTR 
- -t 15.687116252 -s 6 -d 12 -p cbr -e 532 -c 2 -a 0 -i 28 -k RTR
h -t 15.687116252 -s 6 -d 12 -p cbr -e 532 -c 2 -a 0 -i 28 -k RTR
+ -t 15.693170252 -s 12 -d 16 -p cbr -e 532 -c 2 -a 0 -i 28 -k RTR 
- -t 15.693170252 -s 12 -d 16 -p cbr -e 532 -c 2 -a 0 -i 28 -k RTR
h -t 15.693170252 -s 12 -d 16 -p cbr -e 532 -c 2 -a 0 -i 28 -k RTR
r -t 15.699324488 -s 16 -d 16 -p cbr -e 512 -c 2 -a 0 -i 28 -k AGT
+ -t 15.745927188 -s 0 -d -1 -p cbr -e 512 -c 2 -a 0 -i 29 -k AGT 
- -t 15.745927188 -s 0 -d -1 -p cbr -e 512 -c 2 -a 0 -i 29 -k AGT
h -t 15.745927188 -s 0 -d -1 -p cbr -e 512 -c 2 -a 0 -i 29 -k AGT
+ -t 15.745927188 -s 0 -d 6 -p cbr -e 532 -c 2 -a 0 -i 29 -k RTR 
- -t 15.745927188 -s 0 -d 6 -p cbr -e 532 -c 2 -a 0 -i 29 -k RTR
h -t 15.745927188 -s 0 -d 6 -p cbr -e 532 -c 2 -a 0 -i 29 -k RTR
+ -t 15.751517188 -s 6 -d 12 -p cbr -e 532 -c 2 -a 0 -i 29 -k RTR 
- -t 15.751517188 -s 6 -d 12 -p cbr -e 532 -c 2 -a 0 -i 29 -k RTR
h -t 15.751517188 -s 6 -d 12 -p cbr -e 532 -c 2 -a 0 -i 29 -k RTR
+ -t 15.757531188 -s 12 -d 16 -p cbr -e 532 -c 2 -a 0 -i 29 -k RTR 
- -t 15.757531188 -s 12 -d 16 -p cbr -e 532 -c 2 -a 0 -i 29 -k RTR
h -t 15.757531188 -s 12 -d 16 -p cbr -e 532 -c 2 -a 0 -i 29 -k RTR
r -t 15.763825424 -s 16 -d 16 -p cbr -e 512 -c 2 -a 0 -i 29 -k AGT
+ -t 15.806098841 -s 0 -d -1 -p cbr -e 512 -c 2 -a 0 -i 30 -k AGT 
- -t 15.806098841 -s 0 -d -1 -p cbr -e 512 -c 2 -a 0 -i 30 -k AGT
h -t 15.806098841 -s 0 -d -1 -p cbr -e 512 -c 2 -a 0 -i 30 -k AGT
+ -t 15.806098841 -s 0 -d 6 -p cbr -e 532 -c 2 -a 0 -i 30 -k RTR 
- -t 15.806098841 -s 0 -d 6 -p cbr -e 532 -c 2 -a 0 -i 30 -k RTR
h -t 15.806098841 -s 0 -d 6 -p cbr -e 532 -c 2 -a 0 -i 30 -k RTR
+ -t 15.811868841 -s 6 -d 12 -p cbr -e 532 -c 2 -a 0 -i 30 -k RTR 
- -t 15.811868841 -s 6 -d 12 -p cbr -e 532 -c 2 -a 0 -i 30 -k RTR
h -t 15.811868841 -s 6 -d 12 -p cbr -e 532 -c 2 -a 0 -i 30 -k RTR
+ -t 15.817922841 -s 12 -d 16 -p cbr -e 532 -c 2 -a 0 -i 30 -k RTR 
- -t 15.817922841 -s 12 -d 16 -p cbr -e 532 -c 2 -a 0 -i 30 -k RTR
h -t 15.817922841 -s 12 -d 16 -p cbr -e 532 -c 2 -a 0 -i 30 -k RTR
r -t 15.824177077 -s 16 -d 16 -p cbr -e 512 -c 2 -a 0 -i 30 -k AGT
+ -t 15.851587139 -s 0 -d -1 -p cbr -e 512 -c 2 -a 0 -i 31 -k AGT 
- -t 15.851587139 -s 0 -d -1 -p cbr -e 512 -c 2 -a 0 -i 31 -k AGT
h -t 15.851587139 -s 0 -d -1 -p cbr -e 512 -c 2 -a 0 -i 31 -k AGT
+ -t 15.851587139 -s 0 -d 6 -p cbr -e 532 -c 2 -a 0 -i 31 -k RTR 
- -t 15.851587139 -s 0 -d 6 -p cbr -e 532 -c 2 -a 0 -i 31 -k RTR
h -t 15.851587139 -s 0 -d 6 -p cbr -e 532 -c 2 -a 0 -i 31 -k RTR
+ -t 15.857157139 -s 6 -d 12 -p cbr -e 532 -c 2 -a 0 -i 31 -k RTR 
- -t 15.857157139 -s 6 -d 12 -p cbr -e 532 -c 2 -a 0 -i 31 -k RTR
h -t 15.857157139 -s 6 -d 12 -p cbr -e 532 -c 2 -a 0 -i 31 -k RTR
+ -t 15.863411139 -s 12 -d 16 -p cbr -e 532 -c 2 -a 0 -i 31 -k RTR 
- -t 15.863411139 -s 12 -d 16 -p cbr -e 532 -c 2 -a 0 -i 31 -k RTR
h -t 15.863411139 -s 12 -d 16 -p cbr -e 532 -c 2 -a 0 -i 31 -k RTR
r -t 15.869245375 -s 16 -d 16 -p cbr -e 512 -c 2 -a 0 -i 31 -k AGT
+ -t 15.876798022 -s 0 -d -1 -p cbr -e 512 -c 2 -a 0 -i 32 -k AGT 
- -t 15.876798022 -s 0 -d -1 -p cbr -e 512 -c 2 -a 0 -i 32 -k AGT
h -t 15.876798022 -s 0 -d -1 -p cbr -e 512 -c 2 -a 0 -i 32 -k AGT
+ -t 15.876798022 -s 0 -d 6 -p cbr -e 532 -c 2 -a 0 -i 32 -k RTR 
- -t 15.876798022 -s 0 -d 6 -p cbr -e 532 -c 2 -a 0 -i 32 -k RTR
h -t 15.876798022 -s 0 -d 6 -p cbr -e 532 -c 2 -a 0 -i 32 -k RTR
+ -t 15.882428022 -s 6 -d 12 -p cbr -e 532 -c 2 -a 0 -i 32 -k RTR 
- -t 15.882428022 -s 6 -d 12 -p cbr -e 532 -c 2 -a 0 -i 32 -k RTR
h -t 15.882428022 -s 6 -d 12 -p cbr -e 532 -c 2 -a 0 -i 32 -k RTR
+ -t 15.888542022 -s 12 -d 16 -p cbr -e 532 -c 2 -a 0 -i 32 -k RTR 
- -t 15.888542022 -s 12 -d 16 -p cbr -e 532 -c 2 -a 0 -i 32 -k RTR
h -t 15.888542022 -s 12 -d 16 -p cbr -e 532 -c 2 -a 0 -i 32 -k RTR
r -t 15.894476258 -s 16 -d 16 -p cbr -e 512 -c 2 -a 0 -i 32 -k AGT
+ -t 15.916065424 -s 0 -d -1 -p cbr -e 512 -c 2 -a 0 -i 33 -k AGT 
- -t 15.916065424 -s 0 -d -1 -p cbr -e 512 -c 2 -a 0 -i 33 -k AGT
h -t 15.916065424 -s 0 -d -1 -p cbr -e 512 -c 2 -a 0 -i 33 -k AGT
+ -t 15.916065424 -s 0 -d 6 -p cbr -e 532 -c 2 -a 0 -i 33 -k RTR 
- -t 15.916065424 -s 0 -d 6 -p cbr -e 532 -c 2 -a 0 -i 33 -k RTR
h -t 15.916065424 -s 0 -d 6 -p cbr -e 532 -c 2 -a 0 -i 33 -k RTR
+ -t 15.921655424 -s 6 -d 12 -p cbr -e 532 -c 2 -a 0 -i 33 -k RTR 
- -t 15.921655424 -s 6 -d 12 -p cbr -e 532 -c 2 -a 0 -i 33 -k RTR
h -t 15.921655424 -s 6 -d 12 -p cbr -e 532 -c 2 -a 0 -i 33 -k RTR
+ -t 15.927489424 -s 12 -d 16 -p cbr -e 532 -c 2 -a 0 -i 33 -k RTR 
- -t 15.927489424 -s 12 -d 16 -p cbr -e 532 -c 2 -a 0 -i 33 -k RTR
h -t 15.927489424 -s 12 -d 16 -p cbr -e 532 -c 2 -a 0 -i 33 -k RTR
r -t 15.933283660 -s 16 -d 16 -p cbr -e 512 -c 2 -a 0 -i 33 -k AGT
+ -t 15.972623235 -s 0 -d -1 -p cbr -e 512 -c 2 -a 0 -i 34 -k AGT 
- -t 15.972623235 -s 0 -d -1 -p cbr -e 512 -c 2 -a 0 -i 34 -k AGT
h -t 15.972623235 -s 0 -d -1 -p cbr -e 512 -c 2 -a 0 -i 34 -k AGT
+ -t 15.972623235 -s 0 -d 6 -p cbr -e 532 -c 2 -a 0 -i 34 -k RTR 
- -t 15.972623235 -s 0 -d 6 -p cbr -e 532 -c 2 -a 0 -i 34 -k RTR
h -t 15.972623235 -s 0 -d 6 -p cbr -e 532 -c 2 -a 0 -i 34 -k RTR
+ -t 15.978613235 -s 6 -d 12 -p cbr -e 532 -c 2 -a 0 -i 34 -k RTR 
- -t 15.978613235 -s 6 -d 12 -p cbr -e 532 -c 2 -a 0 -i 34 -k RTR
h -t 15.978613235 -s 6 -d 12 -p cbr -e 532 -c 2 -a 0 -i 34 -k RTR
+ -t 15.984567235 -s 12 -d 16 -p cbr -e 532 -c 2 -a 0 -i 34 -k RTR 
- -t 15.984567235 -s 12 -d 16 -p cbr -e 532 -c 2 -a 0 -i 34 -k RTR
h -t 15.984567235 -s 12 -d 16 -p cbr -e 532 -c 2 -a 0 -i 34 -k RTR
r -t 15.990401471 -s 16 -d 16 -p cbr -e 512 -c 2 -a 0 -i 34 -k AGT
+ -t 16.002267591 -s 0 -d -1 -p cbr -e 512 -c 2 -a 0 -i 35 -k AGT 
- -t 16.002267591 -s 0 -d -1 -p cbr -e 512 -c 2 -a 0 -i 35 -k AGT
h -t 16.002267591 -s 0 -d -1 -p cbr -e 512 -c 2 -a 0 -i 35 -k AGT
+ -t 16.002267591 -s 0 -d 6 -p cbr -e 532 -c 2 -a 0 -i 35 -k RTR 
- -t 16.002267591 -s 0 -d 6 -p cbr -e 532 -c 2 -a 0 -i 35 -k RTR
h -t 16.002267591 -s 0 -d 6 -p cbr -e 532 -c 2 -a 0 -i 35 -k RTR
+ -t 16.007997591 -s 6 -d 12 -p cbr -e 532 -c 2 -a 0 -i 35 -k RTR 
- -t 16.007997591 -s 6 -d 12 -p cbr -e 532 -c 2 -a 0 -i 35 -k RTR
h -t 16.007997591 -s 6 -d 12 -p cbr -e 532 -c 2 -a 0 -i 35 -k RTR
+ -t 16.013931591 -s 12 -d 16 -p cbr -e 532 -c 2 -a 0 -i 35 -k RTR 
- -t 16.013931591 -s 12 -d 16 -p cbr -e 532 -c 2 -a 0 -i 35 -k RTR
h -t 16.013931591 -s 12 -d 16 -p cbr -e 532 -c 2 -a 0 -i 35 -k RTR
r -t 16.019785827 -s 16 -d 16 -p cbr -e 512 -c 2 -a 0 -i 35 -k AGT
+ -t 16.050865972 -s 0 -d -1 -p cbr -e 512 -c 2 -a 0 -i 36 -k AGT 
- -t 16.050865972 -s 0 -d -1 -p cbr -e 512 -c 2 -a 0 -i 36 -k AGT
h -t 16.050865972 -s 0 -d -1 -p cbr -e 512 -c 2 -a 0 -i 36 -k AGT
+ -t 16.050865972 -s 0 -d 6 -p cbr -e 532 -c 2 -a 0 -i 36 -k RTR 
- -t 16.050865972 -s 0 -d 6 -p cbr -e 532 -c 2 -a 0 -i 36 -k RTR
h -t 16.050865972 -s 0 -d 6 -p cbr -e 532 -c 2 -a 0 -i 36 -k RTR
+ -t 16.056775972 -s 6 -d 12 -p cbr -e 532 -c 2 -a 0 -i 36 -k RTR 
- -t 16.056775972 -s 6 -d 12 -p cbr -e 532 -c 2 -a 0 -i 36 -k RTR
h -t 16.056775972 -s 6 -d 12 -p cbr -e 532 -c 2 -a 0 -i 36 -k RTR
+ -t 16.062649972 -s 12 -d 16 -p cbr -e 532 -c 2 -a 0 -i 36 -k RTR 
- -t 16.062649972 -s 12 -d 16 -p cbr -e 532 -c 2 -a 0 -i 36 -k RTR
h -t 16.062649972 -s 12 -d 16 -p cbr -e 532 -c 2 -a 0 -i 36 -k RTR
r -t 16.068884208 -s 16 -d 16 -p cbr -e 512 -c 2 -a 0 -i 36 -k AGT
+ -t 16.095271665 -s 0 -d -1 -p cbr -e 512 -c 2 -a 0 -i 37 -k AGT 
- -t 16.095271665 -s 0 -d -1 -p cbr -e 512 -c 2 -a 0 -i 37 -k AGT
h -t 16.095271665 -s 0 -d -1 -p cbr -e 512 -c 2 -a 0 -i 37 -k AGT
+ -t 16.095271665 -s 0 -d 6 -p cbr -e 532 -c 2 -a 0 -i 37 -k RTR 
- -t 16.095271665 -s 0 -d 6 -p cbr -e 532 -c 2 -a 0 -i 37 -k RTR
h -t 16.095271665 -s 0 -d 6 -p cbr -e 532 -c 2 -a 0 -i 37 -k RTR
+ -t 16.101281665 -s 6 -d 12 -p cbr -e 532 -c 2 -a 0 -i 37 -k RTR 
- -t 16.101281665 -s 6 -d 12 -p cbr -e 532 -c 2 -a 0 -i 37 -k RTR
h -t 16.101281665 -s 6 -d 12 -p cbr -e 532 -c 2 -a 0 -i 37 -k RTR
+ -t 16.107315665 -s 12 -d 16 -p cbr -e 532 -c 2 -a 0 -i 37 -k RTR 
- -t 16.107315665 -s 12 -d 16 -p cbr -e 532 -c 2 -a 0 -i 37 -k RTR
h -t 16.107315665 -s 12 -d 16 -p cbr -e 532 -c 2 -a 0 -i 37 -k RTR
r -t 16.113049901 -s 16 -d 16 -p cbr -e 512 -c 2 -a 0 -i 37 -k AGT
+ -t 16.164333112 -s 0 -d -1 -p cbr -e 512 -c 2 -a 0 -i 38 -k AGT 
- -t 16.164333112 -s 0 -d -1 -p cbr -e 512 -c 2 -a 0 -i 38 -k AGT
h -t 16.164333112 -s 0 -d -1 -p cbr -e 512 -c 2 -a 0 -i 38 -k AGT
+ -t 16.164333112 -s 0 -d 6 -p cbr -e 532 -c 2 -a 0 -i 38 -k RTR 
- -t 16.164333112 -s 0 -d 6 -p cbr -e 532 -c 2 -a 0 -i 38 -k RTR