Sconfig 0.00000 tap: on snoop: rts? on errs? on
Sconfig 0.00000 salvage: on !bd replies? on
Sconfig 0.00000 grat error: on grat reply: on
Sconfig 0.00000 $reply for props: on ring 0 search: on
Sconfig 0.00000 using MOBICACHE
s 15.000000000 _0_ AGT  --- 0 cbr 512 [0 0 0 0] ------- [0:0 7:0 32 0] [0] 0 0
r 15.000000000 _0_ RTR  --- 0 cbr 512 [0 0 0 0] ------- [0:0 7:0 32 0] [0] 0 0
s 15.006049459 _0_ RTR  --- 1 DSR 32 [0 0 0 0] ------- [0:255 7:255 32 0] 1 [1 1] [0 1 0 0->0] [0 0 0 0->0]
r 15.007122126 _3_ RTR  --- 1 DSR 32 [0 ffffffff 0 800] ------- [0:255 7:255 32 0] 1 [1 1] [0 1 0 0->0] [0 0 0 0->0]
r 15.007122126 _1_ RTR  --- 1 DSR 32 [0 ffffffff 0 800] ------- [0:255 7:255 32 0] 1 [1 1] [0 1 0 0->0] [0 0 0 0->0]
r 15.007122205 _10_ RTR  --- 1 DSR 32 [0 ffffffff 0 800] ------- [0:255 7:255 32 0] 1 [1 1] [0 1 0 0->0] [0 0 0 0->0]
s 15.047244065 _0_ RTR  --- 3 DSR 32 [0 0 0 0] ------- [0:255 7:255 32 0] 1 [1 2] [0 2 0 0->16] [0 0 0 0->0]
r 15.048516732 _3_ RTR  --- 3 DSR 32 [0 ffffffff 0 800] ------- [0:255 7:255 32 0] 1 [1 2] [0 2 0 0->16] [0 0 0 0->0]
r 15.048516732 _1_ RTR  --- 3 DSR 32 [0 ffffffff 0 800] ------- [0:255 7:255 32 0] 1 [1 2] [0 2 0 0->16] [0 0 0 0->0]
r 15.048516811 _10_ RTR  --- 3 DSR 32 [0 ffffffff 0 800] ------- [0:255 7:255 32 0] 1 [1 2] [0 2 0 0->16] [0 0 0 0->0]
f 15.049618606 _10_ RTR  --- 3 DSR 48 [0 ffffffff 0 800] ------- [0:255 7:255 32 0] 2 [1 2] [0 2 0 0->16] [0 0 0 0->0]
r 15.050778940 _4_ RTR  --- 3 DSR 48 [0 ffffffff a 800] ------- [0:255 7:255 32 0] 2 [1 2] [0 2 0 0->16] [0 0 0 0->0]
r 15.050778940 _1_ RTR  --- 3 DSR 48 [0 ffffffff a 800] ------- [0:255 7:255 32 0] 2 [1 2] [0 2 0 0->16] [0 0 0 0->0]
r 15.050779273 _9_ RTR  --- 3 DSR 48 [0 ffffffff a 800] ------- [0:255 7:255 32 0] 2 [1 2] [0 2 0 0->16] [0 0 0 0->0]
r 15.050779352 _3_ RTR  --- 3 DSR 48 [0 ffffffff a 800] ------- [0:255 7:255 32 0] 2 [1 2] [0 2 0 0->16] [0 0 0 0->0]
r 15.050779352 _0_ RTR  --- 3 DSR 48 [0 ffffffff a 800] ------- [0:255 7:255 32 0] 2 [1 2] [0 2 0 0->16] [0 0 0 0->0]
r 15.050779352 _2_ RTR  --- 3 DSR 48 [0 ffffffff a 800] ------- [0:255 7:255 32 0] 2 [1 2] [0 2 0 0->16] [0 0 0 0->0]
r 15.050779352 _5_ RTR  --- 3 DSR 48 [0 ffffffff a 800] ------- [0:255 7:255 32 0] 2 [1 2] [0 2 0 0->16] [0 0 0 0->0]
f 15.051654155 _1_ RTR  --- 3 DSR 48 [0 ffffffff 0 800] ------- [0:255 7:255 32 0] 2 [1 2] [0 2 0 0->16] [0 0 0 0->0]
f 15.052430275 _4_ RTR  --- 3 DSR 68 [0 ffffffff a 800] ------- [0:255 7:255 32 0] 3 [1 2] [0 2 0 0->16] [0 0 0 0->0]
f 15.052848146 _9_ RTR  --- 3 DSR 68 [0 ffffffff a 800] ------- [0:255 7:255 32 0] 3 [1 2] [0 2 0 0->16] [0 0 0 0->0]
r 15.053074488 _10_ RTR  --- 3 DSR 48 [0 ffffffff 1 800] ------- [0:255 7:255 32 0] 2 [1 2] [0 2 0 0->16] [0 0 0 0->0]
r 15.053074822 _0_ RTR  --- 3 DSR 48 [0 ffffffff 1 800] ------- [0:255 7:255 32 0] 2 [1 2] [0 2 0 0->16] [0 0 0 0->0]
r 15.053074822 _4_ RTR  --- 3 DSR 48 [0 ffffffff 1 800] ------- [0:255 7:255 32 0] 2 [1 2] [0 2 0 0->16] [0 0 0 0->0]
r 15.053074822 _2_ RTR  --- 3 DSR 48 [0 ffffffff 1 800] ------- [0:255 7:255 32 0] 2 [1 2] [0 2 0 0->16] [0 0 0 0->0]
r 15.053074900 _9_ RTR  --- 3 DSR 48 [0 ffffffff 1 800] ------- [0:255 7:255 32 0] 2 [1 2] [0 2 0 0->16] [0 0 0 0->0]
f 15.053593222 _2_ RTR  --- 3 DSR 68 [0 ffffffff a 800] ------- [0:255 7:255 32 0] 3 [1 2] [0 2 0 0->16] [0 0 0 0->0]
f 15.053775698 _3_ RTR  --- 3 DSR 48 [0 ffffffff 0 800] ------- [0:255 7:255 32 0] 2 [1 2] [0 2 0 0->16] [0 0 0 0->0]
r 15.054285155 _10_ RTR  --- 3 DSR 68 [0 ffffffff 4 800] ------- [0:255 7:255 32 0] 3 [1 2] [0 2 0 0->16] [0 0 0 0->0]
r 15.054285488 _1_ RTR  --- 3 DSR 68 [0 ffffffff 4 800] ------- [0:255 7:255 32 0] 3 [1 2] [0 2 0 0->16] [0 0 0 0->0]
r 15.054285488 _3_ RTR  --- 3 DSR 68 [0 ffffffff 4 800] ------- [0:255 7:255 32 0] 3 [1 2] [0 2 0 0->16] [0 0 0 0->0]
r 15.054285488 _7_ RTR  --- 3 DSR 68 [0 ffffffff 4 800] ------- [0:255 7:255 32 0] 3 [1 2] [0 2 0 0->16] [0 0 0 0->0]
r 15.054285488 _5_ RTR  --- 3 DSR 68 [0 ffffffff 4 800] ------- [0:255 7:255 32 0] 3 [1 2] [0 2 0 0->16] [0 0 0 0->0]
r 15.054285567 _9_ RTR  --- 3 DSR 68 [0 ffffffff 4 800] ------- [0:255 7:255 32 0] 3 [1 2] [0 2 0 0->16] [0 0 0 0->0]
f 15.054626384 _5_ RTR  --- 3 DSR 68 [0 ffffffff a 800] ------- [0:255 7:255 32 0] 3 [1 2] [0 2 0 0->16] [0 0 0 0->0]
r 15.055495900 _5_ RTR  --- 3 DSR 68 [0 ffffffff 9 800] ------- [0:255 7:255 32 0] 3 [1 2] [0 2 0 0->16] [0 0 0 0->0]
r 15.055495900 _2_ RTR  --- 3 DSR 68 [0 ffffffff 9 800] ------- [0:255 7:255 32 0] 3 [1 2] [0 2 0 0->16] [0 0 0 0->0]
r 15.055496234 _10_ RTR  --- 3 DSR 68 [0 ffffffff 9 800] ------- [0:255 7:255 32 0] 3 [1 2] [0 2 0 0->16] [0 0 0 0->0]
r 15.055496312 _4_ RTR  --- 3 DSR 68 [0 ffffffff 9 800] ------- [0:255 7:255 32 0] 3 [1 2] [0 2 0 0->16] [0 0 0 0->0]
r 15.055496312 _1_ RTR  --- 3 DSR 68 [0 ffffffff 9 800] ------- [0:255 7:255 32 0] 3 [1 2] [0 2 0 0->16] [0 0 0 0->0]
s 15.056441192 _7_ RTR  --- 4 DSR 60 [0 0 0 0] ------- [7:255 0:255 254 4] 4 [0 2] [1 2 4 0->7] [0 0 0 0->0]
r 15.056566234 _9_ RTR  --- 3 DSR 68 [0 ffffffff 5 800] ------- [0:255 7:255 32 0] 3 [1 2] [0 2 0 0->16] [0 0 0 0->0]
r 15.056566567 _2_ RTR  --- 3 DSR 68 [0 ffffffff 5 800] ------- [0:255 7:255 32 0] 3 [1 2] [0 2 0 0->16] [0 0 0 0->0]
r 15.056566567 _4_ RTR  --- 3 DSR 68 [0 ffffffff 5 800] ------- [0:255 7:255 32 0] 3 [1 2] [0 2 0 0->16] [0 0 0 0->0]
r 15.056566567 _8_ RTR  --- 3 DSR 68 [0 ffffffff 5 800] ------- [0:255 7:255 32 0] 3 [1 2] [0 2 0 0->16] [0 0 0 0->0]
r 15.056566646 _10_ RTR  --- 3 DSR 68 [0 ffffffff 5 800] ------- [0:255 7:255 32 0] 3 [1 2] [0 2 0 0->16] [0 0 0 0->0]
r 15.057676900 _9_ RTR  --- 3 DSR 68 [0 ffffffff 2 800] ------- [0:255 7:255 32 0] 3 [1 2] [0 2 0 0->16] [0 0 0 0->0]
r 15.057677234 _1_ RTR  --- 3 DSR 68 [0 ffffffff 2 800] ------- [0:255 7:255 32 0] 3 [1 2] [0 2 0 0->16] [0 0 0 0->0]
r 15.057677234 _5_ RTR  --- 3 DSR 68 [0 ffffffff 2 800] ------- [0:255 7:255 32 0] 3 [1 2] [0 2 0 0->16] [0 0 0 0->0]
r 15.057677312 _10_ RTR  --- 3 DSR 68 [0 ffffffff 2 800] ------- [0:255 7:255 32 0] 3 [1 2] [0 2 0 0->16] [0 0 0 0->0]
r 15.059926058 _4_ RTR  --- 4 DSR 60 [13a 4 7 800] ------- [7:255 0:255 254 4] 4 [0 2] [1 2 4 0->7] [0 0 0 0->0]
f 15.059926058 _4_ RTR  --- 4 DSR 60 [13a 4 7 800] ------- [7:255 0:255 253 10] 4 [0 2] [1 2 4 0->7] [0 0 0 0->0]
r 15.061281001 _0_ RTR  --- 3 DSR 48 [0 ffffffff 3 800] ------- [0:255 7:255 32 0] 2 [1 2] [0 2 0 0->16] [0 0 0 0->0]
r 15.061281001 _6_ RTR  --- 3 DSR 48 [0 ffffffff 3 800] ------- [0:255 7:255 32 0] 2 [1 2] [0 2 0 0->16] [0 0 0 0->0]
r 15.061281001 _4_ RTR  --- 3 DSR 48 [0 ffffffff 3 800] ------- [0:255 7:255 32 0] 2 [1 2] [0 2 0 0->16] [0 0 0 0->0]
s 15.061281001 _6_ RTR  --- 5 DSR 56 [0 0 0 0] ------- [6:255 0:255 255 3] 3 [0 2] [1 2 4 0->7] [0 0 0 0->0]
r 15.061281079 _10_ RTR  --- 3 DSR 48 [0 ffffffff 3 800] ------- [0:255 7:255 32 0] 2 [1 2] [0 2 0 0->16] [0 0 0 0->0]
r 15.063043001 _3_ RTR  --- 5 DSR 56 [13a 3 6 800] ------- [6:255 0:255 255 3] 3 [0 2] [1 2 4 0->7] [0 0 0 0->0]
f 15.063043001 _3_ RTR  --- 5 DSR 56 [13a 3 6 800] ------- [6:255 0:255 254 0] 3 [0 2] [1 2 4 0->7] [0 0 0 0->0]
f 15.064151407 _8_ RTR  --- 3 DSR 92 [0 ffffffff 5 800] ------- [0:255 7:255 32 0] 4 [1 2] [0 2 0 0->16] [0 0 0 0->0]
r 15.064989001 _0_ RTR  --- 5 DSR 56 [13a 0 3 800] ------- [6:255 0:255 254 0] 3 [0 2] [1 2 4 0->7] [0 0 0 0->0]
SFESTs 15.064989001 _0_ 0 [0 -> 7] 1(1) to 3 [0 |3 6 7 ]
s 15.064989001 _0_ RTR  --- 0 cbr 556 [0 0 0 0] ------- [0:0 7:0 32 3] [0] 0 0
s 15.066547931 _0_ AGT  --- 6 cbr 512 [0 0 0 0] ------- [0:0 7:0 32 0] [1] 0 0
r 15.066547931 _0_ RTR  --- 6 cbr 512 [0 0 0 0] ------- [0:0 7:0 32 0] [1] 0 0
SFESTs 15.066547931 _0_ 6 [0 -> 7] 1(1) to 3 [0 |3 6 7 ]
s 15.066547931 _0_ RTR  --- 6 cbr 556 [0 0 0 0] ------- [0:0 7:0 32 3] [1] 0 0
r 15.069012943 _10_ RTR  --- 4 DSR 60 [13a a 4 800] ------- [7:255 0:255 253 10] 4 [0 2] [1 2 4 0->7] [0 0 0 0->0]
f 15.069012943 _10_ RTR  --- 4 DSR 60 [13a a 4 800] ------- [7:255 0:255 252 0] 4 [0 2] [1 2 4 0->7] [0 0 0 0->0]
r 15.071051179 _0_ RTR  --- 4 DSR 60 [13a 0 a 800] ------- [7:255 0:255 252 0] 4 [0 2] [1 2 4 0->7] [0 0 0 0->0]
r 15.078757179 _3_ RTR  --- 0 cbr 556 [13a 3 0 800] ------- [0:0 7:0 32 3] [0] 1 0
f 15.078757179 _3_ RTR  --- 0 cbr 556 [13a 3 0 800] ------- [0:0 7:0 31 6] [0] 1 0
r 15.084763179 _6_ RTR  --- 0 cbr 556 [13a 6 3 800] ------- [0:0 7:0 31 6] [0] 2 0
f 15.084763179 _6_ RTR  --- 0 cbr 556 [13a 6 3 800] ------- [0:0 7:0 30 7] [0] 2 0
r 15.091269179 _7_ RTR  --- 0 cbr 556 [13a 7 6 800] ------- [0:0 7:0 30 7] [0] 3 0
r 15.091269179 _7_ AGT  --- 0 cbr 512 [13a 7 6 800] ------- [0:0 7:0 30 7] [0] 3 0
r 15.097840670 _3_ RTR  --- 6 cbr 556 [13a 3 0 800] ------- [0:0 7:0 32 3] [1] 1 0
f 15.097840670 _3_ RTR  --- 6 cbr 556 [13a 3 0 800] ------- [0:0 7:0 31 6] [1] 1 0
r 15.104046670 _6_ RTR  --- 6 cbr 556 [13a 6 3 800] ------- [0:0 7:0 31 6] [1] 2 0
f 15.104046670 _6_ RTR  --- 6 cbr 556 [13a 6 3 800] ------- [0:0 7:0 30 7] [1] 2 0
r 15.110512670 _7_ RTR  --- 6 cbr 556 [13a 7 6 800] ------- [0:0 7:0 30 7] [1] 3 0
r 15.110512670 _7_ AGT  --- 6 cbr 512 [13a 7 6 800] ------- [0:0 7:0 30 7] [1] 3 0
s 15.137694312 _0_ AGT  --- 7 cbr 512 [0 0 0 0] ------- [0:0 7:0 32 0] [2] 0 0
r 15.137694312 _0_ RTR  --- 7 cbr 512 [0 0 0 0] ------- [0:0 7:0 32 0] [2] 0 0
SFESTs 15.137694312 _0_ 7 [0 -> 7] 1(1) to 3 [0 |3 6 7 ]
s 15.137694312 _0_ RTR  --- 7 cbr 556 [0 0 0 0] ------- [0:0 7:0 32 3] [2] 0 0
r 15.143596312 _3_ RTR  --- 7 cbr 556 [13a 3 0 800] ------- [0:0 7:0 32 3] [2] 1 0
f 15.143596312 _3_ RTR  --- 7 cbr 556 [13a 3 0 800] ------- [0:0 7:0 31 6] [2] 1 0
r 15.149742312 _6_ RTR  --- 7 cbr 556 [13a 6 3 800] ------- [0:0 7:0 31 6] [2] 2 0
f 15.149742312 _6_ RTR  --- 7 cbr 556 [13a 6 3 800] ------- [0:0 7:0 30 7] [2] 2 0
r 15.156108312 _7_ RTR  --- 7 cbr 556 [13a 7 6 800] ------- [0:0 7:0 30 7] [2] 3 0
r 15.156108312 _7_ AGT  --- 7 cbr 512 [13a 7 6 800] ------- [0:0 7:0 30 7] [2] 3 0
s 15.211530386 _0_ AGT  --- 8 cbr 512 [0 0 0 0] ------- [0:0 7:0 32 0] [3] 0 0
r 15.211530386 _0_ RTR  --- 8 cbr 512 [0 0 0 0] ------- [0:0 7:0 32 0] [3] 0 0
SFs 15.211530386 _0_ 8 [0 -> 7] 1(0) to 3 
s 15.211530386 _0_ RTR  --- 8 cbr 532 [0 0 0 0] ------- [0:0 7:0 32 3] [3] 0 0
r 15.217540386 _3_ RTR  --- 8 cbr 532 [13a 3 0 800] ------- [0:0 7:0 32 3] [3] 1 0
SFf 15.217540386 _3_ 8 [0 -> 7] 1 to 6
f 15.217540386 _3_ RTR  --- 8 cbr 532 [13a 3 0 800] ------- [0:0 7:0 31 6] [3] 1 0
r 15.223694386 _6_ RTR  --- 8 cbr 532 [13a 6 3 800] ------- [0:0 7:0 31 6] [3] 2 0
SFf 15.223694386 _6_ 8 [0 -> 7] 1 to 7
f 15.223694386 _6_ RTR  --- 8 cbr 532 [13a 6 3 800] ------- [0:0 7:0 30 7] [3] 2 0
r 15.229868386 _7_ RTR  --- 8 cbr 532 [13a 7 6 800] ------- [0:0 7:0 30 7] [3] 3 0
r 15.229868386 _7_ AGT  --- 8 cbr 512 [13a 7 6 800] ------- [0:0 7:0 30 7] [3] 3 0
s 15.276685748 _0_ AGT  --- 9 cbr 512 [0 0 0 0] ------- [0:0 7:0 32 0] [4] 0 0
r 15.276685748 _0_ RTR  --- 9 cbr 512 [0 0 0 0] ------- [0:0 7:0 32 0] [4] 0 0
SFs 15.276685748 _0_ 9 [0 -> 7] 1(0) to 3 
s 15.276685748 _0_ RTR  --- 9 cbr 532 [0 0 0 0] ------- [0:0 7:0 32 3] [4] 0 0
r 15.282415748 _3_ RTR  --- 9 cbr 532 [13a 3 0 800] ------- [0:0 7:0 32 3] [4] 1 0
SFf 15.282415748 _3_ 9 [0 -> 7] 1 to 6
f 15.282415748 _3_ RTR  --- 9 cbr 532 [13a 3 0 800] ------- [0:0 7:0 31 6] [4] 1 0
r 15.288209748 _6_ RTR  --- 9 cbr 532 [13a 6 3 800] ------- [0:0 7:0 31 6] [4] 2 0
SFf 15.288209748 _6_ 9 [0 -> 7] 1 to 7
f 15.288209748 _6_ RTR  --- 9 cbr 532 [13a 6 3 800] ------- [0:0 7:0 30 7] [4] 2 0
r 15.294023748 _7_ RTR  --- 9 cbr 532 [13a 7 6 800] ------- [0:0 7:0 30 7] [4] 3 0
r 15.294023748 _7_ AGT  --- 9 cbr 512 [13a 7 6 800] ------- [0:0 7:0 30 7] [4] 3 0
s 15.332904685 _0_ AGT  --- 10 cbr 512 [0 0 0 0] ------- [0:0 7:0 32 0] [5] 0 0
r 15.332904685 _0_ RTR  --- 10 cbr 512 [0 0 0 0] ------- [0:0 7:0 32 0] [5] 0 0
SFs 15.332904685 _0_ 10 [0 -> 7] 1(0) to 3 
s 15.332904685 _0_ RTR  --- 10 cbr 532 [0 0 0 0] ------- [0:0 7:0 32 3] [5] 0 0
r 15.338834685 _3_ RTR  --- 10 cbr 532 [13a 3 0 800] ------- [0:0 7:0 32 3] [5] 1 0
SFf 15.338834685 _3_ 10 [0 -> 7] 1 to 6
f 15.338834685 _3_ RTR  --- 10 cbr 532 [13a 3 0 800] ------- [0:0 7:0 31 6] [5] 1 0
r 15.345148685 _6_ RTR  --- 10 cbr 532 [13a 6 3 800] ------- [0:0 7:0 31 6] [5] 2 0
SFf 15.345148685 _6_ 10 [0 -> 7] 1 to 7
f 15.345148685 _6_ RTR  --- 10 cbr 532 [13a 6 3 800] ------- [0:0 7:0 30 7] [5] 2 0
r 15.351182685 _7_ RTR  --- 10 cbr 532 [13a 7 6 800] ------- [0:0 7:0 30 7] [5] 3 0
r 15.351182685 _7_ AGT  --- 10 cbr 512 [13a 7 6 800] ------- [0:0 7:0 30 7] [5] 3 0
s 15.370686304 _0_ AGT  --- 11 cbr 512 [0 0 0 0] ------- [0:0 7:0 32 0] [6] 0 0
r 15.370686304 _0_ RTR  --- 11 cbr 512 [0 0 0 0] ------- [0:0 7:0 32 0] [6] 0 0
SFs 15.370686304 _0_ 11 [0 -> 7] 1(0) to 3 
s 15.370686304 _0_ RTR  --- 11 cbr 532 [0 0 0 0] ------- [0:0 7:0 32 3] [6] 0 0
r 15.376636304 _3_ RTR  --- 11 cbr 532 [13a 3 0 800] ------- [0:0 7:0 32 3] [6] 1 0
SFf 15.376636304 _3_ 11 [0 -> 7] 1 to 6
f 15.376636304 _3_ RTR  --- 11 cbr 532 [13a 3 0 800] ------- [0:0 7:0 31 6] [6] 1 0
r 15.382510304 _6_ RTR  --- 11 cbr 532 [13a 6 3 800] ------- [0:0 7:0 31 6] [6] 2 0
SFf 15.382510304 _6_ 11 [0 -> 7] 1 to 7
f 15.382510304 _6_ RTR  --- 11 cbr 532 [13a 6 3 800] ------- [0:0 7:0 30 7] [6] 2 0
r 15.388384304 _7_ RTR  --- 11 cbr 532 [13a 7 6 800] ------- [0:0 7:0 30 7] [6] 3 0
r 15.388384304 _7_ AGT  --- 11 cbr 512 [13a 7 6 800] ------- [0:0 7:0 30 7] [6] 3 0
s 15.439211713 _0_ AGT  --- 12 cbr 512 [0 0 0 0] ------- [0:0 7:0 32 0] [7] 0 0
r 15.439211713 _0_ RTR  --- 12 cbr 512 [0 0 0 0] ------- [0:0 7:0 32 0] [7] 0 0
SFs 15.439211713 _0_ 12 [0 -> 7] 1(0) to 3 
s 15.439211713 _0_ RTR  --- 12 cbr 532 [0 0 0 0] ------- [0:0 7:0 32 3] [7] 0 0
r 15.444801713 _3_ RTR  --- 12 cbr 532 [13a 3 0 800] ------- [0:0 7:0 32 3] [7] 1 0
SFf 15.444801713 _3_ 12 [0 -> 7] 1 to 6
f 15.444801713 _3_ RTR  --- 12 cbr 532 [13a 3 0 800] ------- [0:0 7:0 31 6] [7] 1 0
r 15.450775713 _6_ RTR  --- 12 cbr 532 [13a 6 3 800] ------- [0:0 7:0 31 6] [7] 2 0
SFf 15.450775713 _6_ 12 [0 -> 7] 1 to 7
f 15.450775713 _6_ RTR  --- 12 cbr 532 [13a 6 3 800] ------- [0:0 7:0 30 7] [7] 2 0
r 15.456989713 _7_ RTR  --- 12 cbr 532 [13a 7 6 800] ------- [0:0 7:0 30 7] [7] 3 0
r 15.456989713 _7_ AGT  --- 12 cbr 512 [13a 7 6 800] ------- [0:0 7:0 30 7] [7] 3 0
s 15.488452375 _0_ AGT  --- 13 cbr 512 [0 0 0 0] ------- [0:0 7:0 32 0] [8] 0 0
r 15.488452375 _0_ RTR  --- 13 cbr 512 [0 0 0 0] ------- [0:0 7:0 32 0] [8] 0 0
SFs 15.488452375 _0_ 13 [0 -> 7] 1(0) to 3 
s 15.488452375 _0_ RTR  --- 13 cbr 532 [0 0 0 0] ------- [0:0 7:0 32 3] [8] 0 0
r 15.493982375 _3_ RTR  --- 13 cbr 532 [13a 3 0 800] ------- [0:0 7:0 32 3] [8] 1 0
SFf 15.493982375 _3_ 13 [0 -> 7] 1 to 6
f 15.493982375 _3_ RTR  --- 13 cbr 532 [13a 3 0 800] ------- [0:0 7:0 31 6] [8] 1 0
r 15.499916375 _6_ RTR  --- 13 cbr 532 [13a 6 3 800] ------- [0:0 7:0 31 6] [8] 2 0
SFf 15.499916375 _6_ 13 [0 -> 7] 1 to 7
f 15.499916375 _6_ RTR  --- 13 cbr 532 [13a 6 3 800] ------- [0:0 7:0 30 7] [8] 2 0
r 15.506210375 _7_ RTR  --- 13 cbr 532 [13a 7 6 800] ------- [0:0 7:0 30 7] [8] 3 0
r 15.506210375 _7_ AGT  --- 13 cbr 512 [13a 7 6 800] ------- [0:0 7:0 30 7] [8] 3 0
s 15.547440068 _0_ AGT  --- 14 cbr 512 [0 0 0 0] ------- [0:0 7:0 32 0] [9] 0 0
r 15.547440068 _0_ RTR  --- 14 cbr 512 [0 0 0 0] ------- [0:0 7:0 32 0] [9] 0 0
SFs 15.547440068 _0_ 14 [0 -> 7] 1(0) to 3 
s 15.547440068 _0_ RTR  --- 14 cbr 532 [0 0 0 0] ------- [0:0 7:0 32 3] [9] 0 0
r 15.553330068 _3_ RTR  --- 14 cbr 532 [13a 3 0 800] ------- [0:0 7:0 32 3] [9] 1 0
SFf 15.553330068 _3_ 14 [0 -> 7] 1 to 6
f 15.553330068 _3_ RTR  --- 14 cbr 532 [13a 3 0 800] ------- [0:0 7:0 31 6] [9] 1 0
r 15.559284068 _6_ RTR  --- 14 cbr 532 [13a 6 3 800] ------- [0:0 7:0 31 6] [9] 2 0
SFf 15.559284068 _6_ 14 [0 -> 7] 1 to 7
f 15.559284068 _6_ RTR  --- 14 cbr 532 [13a 6 3 800] ------- [0:0 7:0 30 7] [9] 2 0
r 15.565178068 _7_ RTR  --- 14 cbr 532 [13a 7 6 800] ------- [0:0 7:0 30 7] [9] 3 0
r 15.565178068 _7_ AGT  --- 14 cbr 512 [13a 7 6 800] ------- [0:0 7:0 30 7] [9] 3 0
s 15.611644843 _0_ AGT  --- 15 cbr 512 [0 0 0 0] ------- [0:0 7:0 32 0] [10] 0 0
r 15.611644843 _0_ RTR  --- 15 cbr 512 [0 0 0 0] ------- [0:0 7:0 32 0] [10] 0 0
SFs 15.611644843 _0_ 15 [0 -> 7] 1(0) to 3 
s 15.611644843 _0_ RTR  --- 15 cbr 532 [0 0 0 0] ------- [0:0 7:0 32 3] [10] 0 0
r 15.617234843 _3_ RTR  --- 15 cbr 532 [13a 3 0 800] ------- [0:0 7:0 32 3] [10] 1 0
SFf 15.617234843 _3_ 15 [0 -> 7] 1 to 6
f 15.617234843 _3_ RTR  --- 15 cbr 532 [13a 3 0 800] ------- [0:0 7:0 31 6] [10] 1 0
r 15.623008843 _6_ RTR  --- 15 cbr 532 [13a 6 3 800] ------- [0:0 7:0 31 6] [10] 2 0
SFf 15.623008843 _6_ 15 [0 -> 7] 1 to 7
f 15.623008843 _6_ RTR  --- 15 cbr 532 [13a 6 3 800] ------- [0:0 7:0 30 7] [10] 2 0
r 15.628982843 _7_ RTR  --- 15 cbr 532 [13a 7 6 800] ------- [0:0 7:0 30 7] [10] 3 0
r 15.628982843 _7_ AGT  --- 15 cbr 512 [13a 7 6 800] ------- [0:0 7:0 30 7] [10] 3 0
s 15.640400194 _0_ AGT  --- 16 cbr 512 [0 0 0 0] ------- [0:0 7:0 32 0] [11] 0 0
r 15.640400194 _0_ RTR  --- 16 cbr 512 [0 0 0 0] ------- [0:0 7:0 32 0] [11] 0 0
SFs 15.640400194 _0_ 16 [0 -> 7] 1(0) to 3 
s 15.640400194 _0_ RTR  --- 16 cbr 532 [0 0 0 0] ------- [0:0 7:0 32 3] [11] 0 0
r 15.646090194 _3_ RTR  --- 16 cbr 532 [13a 3 0 800] ------- [0:0 7:0 32 3] [11] 1 0
SFf 15.646090194 _3_ 16 [0 -> 7] 1 to 6
f 15.646090194 _3_ RTR  --- 16 cbr 532 [13a 3 0 800] ------- [0:0 7:0 31 6] [11] 1 0
r 15.652004194 _6_ RTR  --- 16 cbr 532 [13a 6 3 800] ------- [0:0 7:0 31 6] [11] 2 0
SFf 15.652004194 _6_ 16 [0 -> 7] 1 to 7
f 15.652004194 _6_ RTR  --- 16 cbr 532 [13a 6 3 800] ------- [0:0 7:0 30 7] [11] 2 0
r 15.657898194 _7_ RTR  --- 16 cbr 532 [13a 7 6 800] ------- [0:0 7:0 30 7] [11] 3 0
r 15.657898194 _7_ AGT  --- 16 cbr 512 [13a 7 6 800] ------- [0:0 7:0 30 7] [11] 3 0
s 15.681549023 _0_ AGT  --- 17 cbr 512 [0 0 0 0] ------- [0:0 7:0 32 0] [12] 0 0
r 15.681549023 _0_ RTR  --- 17 cbr 512 [0 0 0 0] ------- [0:0 7:0 32 0] [12] 0 0
SFs 15.681549023 _0_ 17 [0 -> 7] 1(0) to 3 
s 15.681549023 _0_ RTR  --- 17 cbr 532 [0 0 0 0] ------- [0:0 7:0 32 3] [12] 0 0
r 15.687539023 _3_ RTR  --- 17 cbr 532 [13a 3 0 800] ------- [0:0 7:0 32 3] [12] 1 0
SFf 15.687539023 _3_ 17 [0 -> 7] 1 to 6
f 15.687539023 _3_ RTR  --- 17 cbr 532 [13a 3 0 800] ------- [0:0 7:0 31 6] [12] 1 0
r 15.693393023 _6_ RTR  --- 17 cbr 532 [13a 6 3 800] ------- [0:0 7:0 31 6] [12] 2 0
SFf 15.693393023 _6_ 17 [0 -> 7] 1 to 7
f 15.693393023 _6_ RTR  --- 17 cbr 532 [13a 6 3 800] ------- [0:0 7:0 30 7] [12] 2 0
r 15.699207023 _7_ RTR  --- 17 cbr 532 [13a 7 6 800] ------- [0:0 7:0 30 7] [12] 3 0
r 15.699207023 _7_ AGT  --- 17 cbr 512 [13a 7 6 800] ------- [0:0 7:0 30 7] [12] 3 0
s 15.742976794 _0_ AGT  --- 18 cbr 512 [0 0 0 0] ------- [0:0 7:0 32 0] [13] 0 0
r 15.742976794 _0_ RTR  --- 18 cbr 512 [0 0 0 0] ------- [0:0 7:0 32 0] [13] 0 0
SFs 15.742976794 _0_ 18 [0 -> 7] 1(0) to 3 
s 15.742976794 _0_ RTR  --- 18 cbr 532 [0 0 0 0] ------- [0:0 7:0 32 3] [13] 0 0
r 15.748486794 _3_ RTR  --- 18 cbr 532 [13a 3 0 800] ------- [0:0 7:0 32 3] [13] 1 0
SFf 15.748486794 _3_ 18 [0 -> 7] 1 to 6
f 15.748486794 _3_ RTR  --- 18 cbr 532 [13a 3 0 800] ------- [0:0 7:0 31 6] [13] 1 0
r 15.754560794 _6_ RTR  --- 18 cbr 532 [13a 6 3 800] ------- [0:0 7:0 31 6] [13] 2 0
SFf 15.754560794 _6_ 18 [0 -> 7] 1 to 7
f 15.754560794 _6_ RTR  --- 18 cbr 532 [13a 6 3 800] ------- [0:0 7:0 30 7] [13] 2 0
r 15.760474794 _7_ RTR  --- 18 cbr 532 [13a 7 6 800] ------- [0:0 7:0 30 7] [13] 3 0
r 15.760474794 _7_ AGT  --- 18 cbr 512 [13a 7 6 800] ------- [0:0 7:0 30 7] [13] 3 0
s 15.791541832 _0_ AGT  --- 19 cbr 512 [0 0 0 0] ------- [0:0 7:0 32 0] [14] 0 0
r 15.791541832 _0_ RTR  --- 19 cbr 512 [0 0 0 0] ------- [0:0 7:0 32 0] [14] 0 0
SFs 15.791541832 _0_ 19 [0 -> 7] 1(0) to 3 
s 15.791541832 _0_ RTR  --- 19 cbr 532 [0 0 0 0] ------- [0:0 7:0 32 3] [14] 0 0
r 15.797151832 _3_ RTR  --- 19 cbr 532 [13a 3 0 800] ------- [0:0 7:0 32 3] [14] 1 0
SFf 15.797151832 _3_ 19 [0 -> 7] 1 to 6
f 15.797151832 _3_ RTR  --- 19 cbr 532 [13a 3 0 800] ------- [0:0 7:0 31 6] [14] 1 0
r 15.803325832 _6_ RTR  --- 19 cbr 532 [13a 6 3 800] ------- [0:0 7:0 31 6] [14] 2 0
SFf 15.803325832 _6_ 19 [0 -> 7] 1 to 7
f 15.803325832 _6_ RTR  --- 19 cbr 532 [13a 6 3 800] ------- [0:0 7:0 30 7] [14] 2 0
r 15.809639832 _7_ RTR  --- 19 cbr 532 [13a 7 6 800] ------- [0:0 7:0 30 7] [14] 3 0
r 15.809639832 _7_ AGT  --- 19 cbr 512 [13a 7 6 800] ------- [0:0 7:0 30 7] [14] 3 0
s 15.846021090 _0_ AGT  --- 20 cbr 512 [0 0 0 0] ------- [0:0 7:0 32 0] [15] 0 0
r 15.846021090 _0_ RTR  --- 20 cbr 512 [0 0 0 0] ------- [0:0 7:0 32 0] [15] 0 0
SFs 15.846021090 _0_ 20 [0 -> 7] 1(0) to 3 
s 15.846021090 _0_ RTR  --- 20 cbr 532 [0 0 0 0] ------- [0:0 7:0 32 3] [15] 0 0
r 15.851991090 _3_ RTR  --- 20 cbr 532 [13a 3 0 800] ------- [0:0 7:0 32 3] [15] 1 0
SFf 15.851991090 _3_ 20 [0 -> 7] 1 to 6
f 15.851991090 _3_ RTR  --- 20 cbr 532 [13a 3 0 800] ------- [0:0 7:0 31 6] [15] 1 0
r 15.858145090 _6_ RTR  --- 20 cbr 532 [13a 6 3 800] ------- [0:0 7:0 31 6] [15] 2 0
SFf 15.858145090 _6_ 20 [0 -> 7] 1 to 7
f 15.858145090 _6_ RTR  --- 20 cbr 532 [13a 6 3 800] ------- [0:0 7:0 30 7] [15] 2 0
r 15.864139090 _7_ RTR  --- 20 cbr 532 [13a 7 6 800] ------- [0:0 7:0 30 7] [15] 3 0
r 15.864139090 _7_ AGT  --- 20 cbr 512 [13a 7 6 800] ------- [0:0 7:0 30 7] [15] 3 0
s 15.898771714 _0_ AGT  --- 21 cbr 512 [0 0 0 0] ------- [0:0 7:0 32 0] [16] 0 0
r 15.898771714 _0_ RTR  --- 21 cbr 512 [0 0 0 0] ------- [0:0 7:0 32 0] [16] 0 0
SFs 15.898771714 _0_ 21 [0 -> 7] 1(0) to 3 
s 15.898771714 _0_ RTR  --- 21 cbr 532 [0 0 0 0] ------- [0:0 7:0 32 3] [16] 0 0
r 15.904621714 _3_ RTR  --- 21 cbr 532 [13a 3 0 800] ------- [0:0 7:0 32 3] [16] 1 0
SFf 15.904621714 _3_ 21 [0 -> 7] 1 to 6
f 15.904621714 _3_ RTR  --- 21 cbr 532 [13a 3 0 800] ------- [0:0 7:0 31 6] [16] 1 0
r 15.910415714 _6_ RTR  --- 21 cbr 532 [13a 6 3 800] ------- [0:0 7:0 31 6] [16] 2 0
SFf 15.910415714 _6_ 21 [0 -> 7] 1 to 7
f 15.910415714 _6_ RTR  --- 21 cbr 532 [13a 6 3 800] ------- [0:0 7:0 30 7] [16] 2 0
r 15.916149714 _7_ RTR  --- 21 cbr 532 [13a 7 6 800] ------- [0:0 7:0 30 7] [16] 3 0
r 15.916149714 _7_ AGT  --- 21 cbr 512 [13a 7 6 800] ------- [0:0 7:0 30 7] [16] 3 0
s 15.929137306 _0_ AGT  --- 22 cbr 512 [0 0 0 0] ------- [0:0 7:0 32 0] [17] 0 0
r 15.929137306 _0_ RTR  --- 22 cbr 512 [0 0 0 0] ------- [0:0 7:0 32 0] [17] 0 0
SFs 15.929137306 _0_ 22 [0 -> 7] 1(0) to 3 
s 15.929137306 _0_ RTR  --- 22 cbr 532 [0 0 0 0] ------- [0:0 7:0 32 3] [17] 0 0
r 15.934767306 _3_ RTR  --- 22 cbr 532 [13a 3 0 800] ------- [0:0 7:0 32 3] [17] 1 0
SFf 15.934767306 _3_ 22 [0 -> 7] 1 to 6
f 15.934767306 _3_ RTR  --- 22 cbr 532 [13a 3 0 800] ------- [0:0 7:0 31 6] [17] 1 0
r 15.940561306 _6_ RTR  --- 22 cbr 532 [13a 6 3 800] ------- [0:0 7:0 31 6] [17] 2 0
SFf 15.940561306 _6_ 22 [0 -> 7] 1 to 7
f 15.940561306 _6_ RTR  --- 22 cbr 532 [13a 6 3 800] ------- [0:0 7:0 30 7] [17] 2 0
r 15.946295306 _7_ RTR  --- 22 cbr 532 [13a 7 6 800] ------- [0:0 7:0 30 7] [17] 3 0
r 15.946295306 _7_ AGT  --- 22 cbr 512 [13a 7 6 800] ------- [0:0 7:0 30 7] [17] 3 0
s 15.965119554 _0_ AGT  --- 23 cbr 512 [0 0 0 0] ------- [0:0 7:0 32 0] [18] 0 0
r 15.965119554 _0_ RTR  --- 23 cbr 512 [0 0 0 0] ------- [0:0 7:0 32 0] [18] 0 0
SFs 15.965119554 _0_ 23 [0 -> 7] 1(0) to 3 
s 15.965119554 _0_ RTR  --- 23 cbr 532 [0 0 0 0] ------- [0:0 7:0 32 3] [18] 0 0
r 15.971089554 _3_ RTR  --- 23 cbr 532 [13a 3 0 800] ------- [0:0 7:0 32 3] [18] 1 0
SFf 15.971089554 _3_ 23 [0 -> 7] 1 to 6
f 15.971089554 _3_ RTR  --- 23 cbr 532 [13a 3 0 800] ------- [0:0 7:0 31 6] [18] 1 0
r 15.976803554 _6_ RTR  --- 23 cbr 532 [13a 6 3 800] ------- [0:0 7:0 31 6] [18] 2 0
SFf 15.976803554 _6_ 23 [0 -> 7] 1 to 7
f 15.976803554 _6_ RTR  --- 23 cbr 532 [13a 6 3 800] ------- [0:0 7:0 30 7] [18] 2 0
r 15.982977554 _7_ RTR  --- 23 cbr 532 [13a 7 6 800] ------- [0:0 7:0 30 7] [18] 3 0
r 15.982977554 _7_ AGT  --- 23 cbr 512 [13a 7 6 800] ------- [0:0 7:0 30 7] [18] 3 0
s 16.000466363 _0_ AGT  --- 24 cbr 512 [0 0 0 0] ------- [0:0 7:0 32 0] [19] 0 0
r 16.000466363 _0_ RTR  --- 24 cbr 512 [0 0 0 0] ------- [0:0 7:0 32 0] [19] 0 0
SFs 16.000466363 _0_ 24 [0 -> 7] 1(0) to 3 
s 16.000466363 _0_ RTR  --- 24 cbr 532 [0 0 0 0] ------- [0:0 7:0 32 3] [19] 0 0
r 16.005996363 _3_ RTR  --- 24 cbr 532 [13a 3 0 800] ------- [0:0 7:0 32 3] [19] 1 0
SFf 16.005996363 _3_ 24 [0 -> 7] 1 to 6
f 16.005996363 _3_ RTR  --- 24 cbr 532 [13a 3 0 800] ------- [0:0 7:0 31 6] [19] 1 0
r 16.012070363 _6_ RTR  --- 24 cbr 532 [13a 6 3 800] ------- [0:0 7:0 31 6] [19] 2 0
SFf 16.012070363 _6_ 24 [0 -> 7] 1 to 7
f 16.012070363 _6_ RTR  --- 24 cbr 532 [13a 6 3 800] ------- [0:0 7:0 30 7] [19] 2 0
r 16.017864363 _7_ RTR  --- 24 cbr 532 [13a 7 6 800] ------- [0:0 7:0 30 7] [19] 3 0
r 16.017864363 _7_ AGT  --- 24 cbr 512 [13a 7 6 800] ------- [0:0 7:0 30 7] [19] 3 0
s 16.046581849 _0_ AGT  --- 25 cbr 512 [0 0 0 0] ------- [0:0 7:0 32 0] [20] 0 0
r 16.046581849 _0_ RTR  --- 25 cbr 512 [0 0 0 0] ------- [0:0 7:0 32 0] [20] 0 0
SFs 16.046581849 _0_ 25 [0 -> 7] 1(0) to 3 
s 16.046581849 _0_ RTR  --- 25 cbr 532 [0 0 0 0] ------- [0:0 7:0 32 3] [20] 0 0
r 16.052231849 _3_ RTR  --- 25 cbr 532 [13a 3 0 800] ------- [0:0 7:0 32 3] [20] 1 0
SFf 16.052231849 _3_ 25 [0 -> 7] 1 to 6
f 16.052231849 _3_ RTR  --- 25 cbr 532 [13a 3 0 800] ------- [0:0 7:0 31 6] [20] 1 0
r 16.057945849 _6_ RTR  --- 25 cbr 532 [13a 6 3 800] ------- [0:0 7:0 31 6] [20] 2 0
SFf 16.057945849 _6_ 25 [0 -> 7] 1 to 7
f 16.057945849 _6_ RTR  --- 25 cbr 532 [13a 6 3 800] ------- [0:0 7:0 30 7] [20] 2 0
r 16.063979849 _7_ RTR  --- 25 cbr 532 [13a 7 6 800] ------- [0:0 7:0 30 7] [20] 3 0
r 16.063979849 _7_ AGT  --- 25 cbr 512 [13a 7 6 800] ------- [0:0 7:0 30 7] [20] 3 0
s 16.104150286 _0_ AGT  --- 26 cbr 512 [0 0 0 0] ------- [0:0 7:0 32 0] [21] 0 0
r 16.104150286 _0_ RTR  --- 26 cbr 512 [0 0 0 0] ------- [0:0 7:0 32 0] [21] 0 0
SFs 16.104150286 _0_ 26 [0 -> 7] 1(0) to 3 
s 16.104150286 _0_ RTR  --- 26 cbr 532 [0 0 0 0] ------- [0:0 7:0 32 3] [21] 0 0
r 16.109620286 _3_ RTR  --- 26 cbr 532 [13a 3 0 800] ------- [0:0 7:0 32 3] [21] 1 0
SFf 16.109620286 _3_ 26 [0 -> 7] 1 to 6
f 16.109620286 _3_ RTR  --- 26 cbr 532 [13a 3 0 800] ------- [0:0 7:0 31 6] [21] 1 0
r 16.115714286 _6_ RTR  --- 26 cbr 532 [13a 6 3 800] ------- [0:0 7:0 31 6] [21] 2 0
SFf 16.115714286 _6_ 26 [0 -> 7] 1 to 7
f 16.115714286 _6_ RTR  --- 26 cbr 532 [13a 6 3 800] ------- [0:0 7:0 30 7] [21] 2 0
r 16.121928286 _7_ RTR  --- 26 cbr 532 [13a 7 6 800] ------- [0:0 7:0 30 7] [21] 3 0
r 16.121928286 _7_ AGT  --- 26 cbr 512 [13a 7 6 800] ------- [0:0 7:0 30 7] [21] 3 0
s 16.146285560 _0_ AGT  --- 27 cbr 512 [0 0 0 0] ------- [0:0 7:0 32 0] [22] 0 0
r 16.146285560 _0_ RTR  --- 27 cbr 512 [0 0 0 0] ------- [0:0 7:0 32 0] [22] 0 0
SFs 16.146285560 _0_ 27 [0 -> 7] 1(0) to 3 
s 16.146285560 _0_ RTR  --- 27 cbr 532 [0 0 0 0] ------- [0:0 7:0 32 3] [22] 0 0
r 16.151995560 _3_ RTR  --- 27 cbr 532 [13a 3 0 800] ------- [0:0 7:0 32 3] [22] 1 0
SFf 16.151995560 _3_ 27 [0 -> 7] 1 to 6
f 16.151995560 _3_ RTR  --- 27 cbr 532 [13a 3 0 800] ------- [0:0 7:0 31 6] [22] 1 0
r 16.157809560 _6_ RTR  --- 27 cbr 532 [13a 6 3 800] ------- [0:0 7:0 31 6] [22] 2 0
SFf 16.157809560 _6_ 27 [0 -> 7] 1 to 7
f 16.157809560 _6_ RTR  --- 27 cbr 532 [13a 6 3 800] ------- [0:0 7:0 30 7] [22] 2 0
r 16.163923560 _7_ RTR  --- 27 cbr 532 [13a 7 6 800] ------- [0:0 7:0 30 7] [22] 3 0
r 16.163923560 _7_ AGT  --- 27 cbr 512 [13a 7 6 800] ------- [0:0 7:0 30 7] [22] 3 0
s 16.202247995 _0_ AGT  --- 28 cbr 512 [0 0 0 0] ------- [0:0 7:0 32 0] [23] 0 0
r 16.202247995 _0_ RTR  --- 28 cbr 512 [0 0 0 0] ------- [0:0 7:0 32 0] [23] 0 0
SFs 16.202247995 _0_ 28 [0 -> 7] 1(0) to 3 
s 16.202247995 _0_ RTR  --- 28 cbr 532 [0 0 0 0] ------- [0:0 7:0 32 3] [23] 0 0
r 16.207777995 _3_ RTR  --- 28 cbr 532 [13a 3 0 800] ------- [0:0 7:0 32 3] [23] 1 0
SFf 16.207777995 _3_ 28 [0 -> 7] 1 to 6
f 16.207777995 _3_ RTR  --- 28 cbr 532 [13a 3 0 800] ------- [0:0 7:0 31 6] [23] 1 0
r 16.213691995 _6_ RTR  --- 28 cbr 532 [13a 6 3 800] ------- [0:0 7:0 31 6] [23] 2 0
SFf 16.213691995 _6_ 28 [0 -> 7] 1 to 7
f 16.213691995 _6_ RTR  --- 28 cbr 532 [13a 6 3 800] ------- [0:0 7:0 30 7] [23] 2 0
r 16.219785995 _7_ RTR  --- 28 cbr 532 [13a 7 6 800] ------- [0:0 7:0 30 7] [23] 3 0
r 16.219785995 _7_ AGT  --- 28 cbr 512 [13a 7 6 800] ------- [0:0 7:0 30 7] [23] 3 0
s 16.269849021 _0_ AGT  --- 29 cbr 512 [0 0 0 0] ------- [0:0 7:0 32 0] [24] 0 0
r 16.269849021 _0_ RTR  --- 29 cbr 512 [0 0 0 0] ------- [0:0 7:0 32 0] [24] 0 0
SFs 16.269849021 _0_ 29 [0 -> 7] 1(0) to 3 
s 16.269849021 _0_ RTR  --- 29 cbr 532 [0 0 0 0] ------- [0:0 7:0 32 3] [24] 0 0
r 16.275879021 _3_ RTR  --- 29 cbr 532 [13a 3 0 800] ------- [0:0 7:0 32 3] [24] 1 0
SFf 16.275879021 _3_ 29 [0 -> 7] 1 to 6
f 16.275879021 _3_ RTR  --- 29 cbr 532 [13a 3 0 800] ------- [0:0 7:0 31 6] [24] 1 0
r 16.281653021 _6_ RTR  --- 29 cbr 532 [13a 6 3 800] ------- [0:0 7:0 31 6] [24] 2 0
SFf 16.281653021 _6_ 29 [0 -> 7] 1 to 7
f 16.281653021 _6_ RTR  --- 29 cbr 532 [13a 6 3 800] ------- [0:0 7:0 30 7] [24] 2 0
r 16.287387021 _7_ RTR  --- 29 cbr 532 [13a 7 6 800] ------- [0:0 7:0 30 7] [24] 3 0
r 16.287387021 _7_ AGT  --- 29 cbr 512 [13a 7 6 800] ------- [0:0 7:0 30 7] [24] 3 0
s 16.300132372 _0_ AGT  --- 30 cbr 512 [0 0 0 0] ------- [0:0 7:0 32 0] [25] 0 0
r 16.300132372 _0_ RTR  --- 30 cbr 512 [0 0 0 0] ------- [0:0 7:0 32 0] [25] 0 0
SFs 16.300132372 _0_ 30 [0 -> 7] 1(0) to 3 
s 16.300132372 _0_ RTR  --- 30 cbr 532 [0 0 0 0] ------- [0:0 7:0 32 3] [25] 0 0
r 16.305602372 _3_ RTR  --- 30 cbr 532 [13a 3 0 800] ------- [0:0 7:0 32 3] [25] 1 0
SFf 16.305602372 _3_ 30 [0 -> 7] 1 to 6
f 16.305602372 _3_ RTR  --- 30 cbr 532 [13a 3 0 800] ------- [0:0 7:0 31 6] [25] 1 0
r 16.311916372 _6_ RTR  --- 30 cbr 532 [13a 6 3 800] ------- [0:0 7:0 31 6] [25] 2 0
SFf 16.311916372 _6_ 30 [0 -> 7] 1 to 7
f 16.311916372 _6_ RTR  --- 30 cbr 532 [13a 6 3 800] ------- [0:0 7:0 30 7] [25] 2 0
r 16.318070372 _7_ RTR  --- 30 cbr 532 [13a 7 6 800] ------- [0:0 7:0 30 7] [25] 3 0
r 16.318070372 _7_ AGT  --- 30 cbr 512 [13a 7 6 800] ------- [0:0 7:0 30 7] [25] 3 0