n -t * -s 0  -x 100 -y 100 -Z 0 -z 30  -v circle -c black
n -t * -s 1  -x 300 -y 100 -Z 0 -z 30  -v circle -c black
n -t * -s 2  -x 500 -y 100 -Z 0 -z 30  -v circle -c black
n -t * -s 3  -x 100 -y 300 -Z 0 -z 30  -v circle -c black
n -t * -s 4  -x 300 -y 300 -Z 0 -z 30  -v circle -c black
n -t * -s 5  -x 500 -y 300 -Z 0 -z 30  -v circle -c black
n -t * -s 6  -x 100 -y 500 -Z 0 -z 30  -v circle -c black
n -t * -s 7  -x 300 -y 500 -Z 0 -z 30  -v circle -c black
n -t * -s 8  -x 500 -y 500 -Z 0 -z 30  -v circle -c black
n -t * -s 9  -x 500 -y 200 -Z 0 -z 30  -v circle -c black
n -t * -s 10  -x 300 -y 200 -Z 0 -z 30  -v circle -c black
V -t * -v 1.0a5 -a 0
W -t * -x 500 -y 500
A -t * -n 1 -p 0 -o 0xffffffff -c 31 -a 1
A -t * -h 1 -m 2147483647 -s 0
+ -t 15.000000000 -s 0 -d -1 -p cbr -e 512 -c 2 -a 0 -i 0 -k AGT 
- -t 15.000000000 -s 0 -d -1 -p cbr -e 512 -c 2 -a 0 -i 0 -k AGT
h -t 15.000000000 -s 0 -d -1 -p cbr -e 512 -c 2 -a 0 -i 0 -k AGT
+ -t 15.006049459 -s 0 -d -1 -p DSR -e 32 -c 2 -a 0 -i 1 -k RTR 
- -t 15.006049459 -s 0 -d -1 -p DSR -e 32 -c 2 -a 0 -i 1 -k RTR
h -t 15.006049459 -s 0 -d -1 -p DSR -e 32 -c 2 -a 0 -i 1 -k RTR
+ -t 15.047244065 -s 0 -d -1 -p DSR -e 32 -c 2 -a 0 -i 3 -k RTR 
- -t 15.047244065 -s 0 -d -1 -p DSR -e 32 -c 2 -a 0 -i 3 -k RTR
h -t 15.047244065 -s 0 -d -1 -p DSR -e 32 -c 2 -a 0 -i 3 -k RTR
+ -t 15.049618606 -s 10 -d -1 -p DSR -e 48 -c 2 -a 0 -i 3 -k RTR 
- -t 15.049618606 -s 10 -d -1 -p DSR -e 48 -c 2 -a 0 -i 3 -k RTR
h -t 15.049618606 -s 10 -d -1 -p DSR -e 48 -c 2 -a 0 -i 3 -k RTR
+ -t 15.051654155 -s 1 -d -1 -p DSR -e 48 -c 2 -a 0 -i 3 -k RTR 
- -t 15.051654155 -s 1 -d -1 -p DSR -e 48 -c 2 -a 0 -i 3 -k RTR
h -t 15.051654155 -s 1 -d -1 -p DSR -e 48 -c 2 -a 0 -i 3 -k RTR
+ -t 15.052430275 -s 4 -d -1 -p DSR -e 68 -c 2 -a 0 -i 3 -k RTR 
- -t 15.052430275 -s 4 -d -1 -p DSR -e 68 -c 2 -a 0 -i 3 -k RTR
h -t 15.052430275 -s 4 -d -1 -p DSR -e 68 -c 2 -a 0 -i 3 -k RTR
+ -t 15.052848146 -s 9 -d -1 -p DSR -e 68 -c 2 -a 0 -i 3 -k RTR 
- -t 15.052848146 -s 9 -d -1 -p DSR -e 68 -c 2 -a 0 -i 3 -k RTR
h -t 15.052848146 -s 9 -d -1 -p DSR -e 68 -c 2 -a 0 -i 3 -k RTR
+ -t 15.053593222 -s 2 -d -1 -p DSR -e 68 -c 2 -a 0 -i 3 -k RTR 
- -t 15.053593222 -s 2 -d -1 -p DSR -e 68 -c 2 -a 0 -i 3 -k RTR
h -t 15.053593222 -s 2 -d -1 -p DSR -e 68 -c 2 -a 0 -i 3 -k RTR
+ -t 15.053775698 -s 3 -d -1 -p DSR -e 48 -c 2 -a 0 -i 3 -k RTR 
- -t 15.053775698 -s 3 -d -1 -p DSR -e 48 -c 2 -a 0 -i 3 -k RTR
h -t 15.053775698 -s 3 -d -1 -p DSR -e 48 -c 2 -a 0 -i 3 -k RTR
+ -t 15.054626384 -s 5 -d -1 -p DSR -e 68 -c 2 -a 0 -i 3 -k RTR 
- -t 15.054626384 -s 5 -d -1 -p DSR -e 68 -c 2 -a 0 -i 3 -k RTR
h -t 15.054626384 -s 5 -d -1 -p DSR -e 68 -c 2 -a 0 -i 3 -k RTR
+ -t 15.056441192 -s 7 -d 4 -p DSR -e 60 -c 2 -a 0 -i 4 -k RTR 
- -t 15.056441192 -s 7 -d 4 -p DSR -e 60 -c 2 -a 0 -i 4 -k RTR
h -t 15.056441192 -s 7 -d 4 -p DSR -e 60 -c 2 -a 0 -i 4 -k RTR
+ -t 15.059926058 -s 4 -d 10 -p DSR -e 60 -c 2 -a 0 -i 4 -k RTR 
- -t 15.059926058 -s 4 -d 10 -p DSR -e 60 -c 2 -a 0 -i 4 -k RTR
h -t 15.059926058 -s 4 -d 10 -p DSR -e 60 -c 2 -a 0 -i 4 -k RTR
+ -t 15.061281001 -s 6 -d 3 -p DSR -e 56 -c 2 -a 0 -i 5 -k RTR 
- -t 15.061281001 -s 6 -d 3 -p DSR -e 56 -c 2 -a 0 -i 5 -k RTR
h -t 15.061281001 -s 6 -d 3 -p DSR -e 56 -c 2 -a 0 -i 5 -k RTR
+ -t 15.063043001 -s 3 -d 0 -p DSR -e 56 -c 2 -a 0 -i 5 -k RTR 
- -t 15.063043001 -s 3 -d 0 -p DSR -e 56 -c 2 -a 0 -i 5 -k RTR
h -t 15.063043001 -s 3 -d 0 -p DSR -e 56 -c 2 -a 0 -i 5 -k RTR
+ -t 15.064151407 -s 8 -d -1 -p DSR -e 92 -c 2 -a 0 -i 3 -k RTR 
- -t 15.064151407 -s 8 -d -1 -p DSR -e 92 -c 2 -a 0 -i 3 -k RTR
h -t 15.064151407 -s 8 -d -1 -p DSR -e 92 -c 2 -a 0 -i 3 -k RTR
+ -t 15.064989001 -s 0 -d 3 -p cbr -e 556 -c 2 -a 0 -i 0 -k RTR 
- -t 15.064989001 -s 0 -d 3 -p cbr -e 556 -c 2 -a 0 -i 0 -k RTR
h -t 15.064989001 -s 0 -d 3 -p cbr -e 556 -c 2 -a 0 -i 0 -k RTR
+ -t 15.066547931 -s 0 -d -1 -p cbr -e 512 -c 2 -a 0 -i 6 -k AGT 
- -t 15.066547931 -s 0 -d -1 -p cbr -e 512 -c 2 -a 0 -i 6 -k AGT
h -t 15.066547931 -s 0 -d -1 -p cbr -e 512 -c 2 -a 0 -i 6 -k AGT
+ -t 15.066547931 -s 0 -d 3 -p cbr -e 556 -c 2 -a 0 -i 6 -k RTR 
- -t 15.066547931 -s 0 -d 3 -p cbr -e 556 -c 2 -a 0 -i 6 -k RTR
h -t 15.066547931 -s 0 -d 3 -p cbr -e 556 -c 2 -a 0 -i 6 -k RTR
+ -t 15.069012943 -s 10 -d 0 -p DSR -e 60 -c 2 -a 0 -i 4 -k RTR 
- -t 15.069012943 -s 10 -d 0 -p DSR -e 60 -c 2 -a 0 -i 4 -k RTR
h -t 15.069012943 -s 10 -d 0 -p DSR -e 60 -c 2 -a 0 -i 4 -k RTR
+ -t 15.078757179 -s 3 -d 6 -p cbr -e 556 -c 2 -a 0 -i 0 -k RTR 
- -t 15.078757179 -s 3 -d 6 -p cbr -e 556 -c 2 -a 0 -i 0 -k RTR
h -t 15.078757179 -s 3 -d 6 -p cbr -e 556 -c 2 -a 0 -i 0 -k RTR
+ -t 15.084763179 -s 6 -d 7 -p cbr -e 556 -c 2 -a 0 -i 0 -k RTR 
- -t 15.084763179 -s 6 -d 7 -p cbr -e 556 -c 2 -a 0 -i 0 -k RTR
h -t 15.084763179 -s 6 -d 7 -p cbr -e 556 -c 2 -a 0 -i 0 -k RTR
r -t 15.091269179 -s 7 -d 7 -p cbr -e 512 -c 2 -a 0 -i 0 -k AGT
+ -t 15.097840670 -s 3 -d 6 -p cbr -e 556 -c 2 -a 0 -i 6 -k RTR 
- -t 15.097840670 -s 3 -d 6 -p cbr -e 556 -c 2 -a 0 -i 6 -k RTR
h -t 15.097840670 -s 3 -d 6 -p cbr -e 556 -c 2 -a 0 -i 6 -k RTR
+ -t 15.104046670 -s 6 -d 7 -p cbr -e 556 -c 2 -a 0 -i 6 -k RTR 
- -t 15.104046670 -s 6 -d 7 -p cbr -e 556 -c 2 -a 0 -i 6 -k RTR
h -t 15.104046670 -s 6 -d 7 -p cbr -e 556 -c 2 -a 0 -i 6 -k RTR
r -t 15.110512670 -s 7 -d 7 -p cbr -e 512 -c 2 -a 0 -i 6 -k AGT
+ -t 15.137694312 -s 0 -d -1 -p cbr -e 512 -c 2 -a 0 -i 7 -k AGT 
- -t 15.137694312 -s 0 -d -1 -p cbr -e 512 -c 2 -a 0 -i 7 -k AGT
h -t 15.137694312 -s 0 -d -1 -p cbr -e 512 -c 2 -a 0 -i 7 -k AGT
+ -t 15.137694312 -s 0 -d 3 -p cbr -e 556 -c 2 -a 0 -i 7 -k RTR 
- -t 15.137694312 -s 0 -d 3 -p cbr -e 556 -c 2 -a 0 -i 7 -k RTR
h -t 15.137694312 -s 0 -d 3 -p cbr -e 556 -c 2 -a 0 -i 7 -k RTR
+ -t 15.143596312 -s 3 -d 6 -p cbr -e 556 -c 2 -a 0 -i 7 -k RTR 
- -t 15.143596312 -s 3 -d 6 -p cbr -e 556 -c 2 -a 0 -i 7 -k RTR
h -t 15.143596312 -s 3 -d 6 -p cbr -e 556 -c 2 -a 0 -i 7 -k RTR
+ -t 15.149742312 -s 6 -d 7 -p cbr -e 556 -c 2 -a 0 -i 7 -k RTR 
- -t 15.149742312 -s 6 -d 7 -p cbr -e 556 -c 2 -a 0 -i 7 -k RTR
h -t 15.149742312 -s 6 -d 7 -p cbr -e 556 -c 2 -a 0 -i 7 -k RTR
r -t 15.156108312 -s 7 -d 7 -p cbr -e 512 -c 2 -a 0 -i 7 -k AGT
+ -t 15.211530386 -s 0 -d -1 -p cbr -e 512 -c 2 -a 0 -i 8 -k AGT 
- -t 15.211530386 -s 0 -d -1 -p cbr -e 512 -c 2 -a 0 -i 8 -k AGT
h -t 15.211530386 -s 0 -d -1 -p cbr -e 512 -c 2 -a 0 -i 8 -k AGT
+ -t 15.211530386 -s 0 -d 3 -p cbr -e 532 -c 2 -a 0 -i 8 -k RTR 
- -t 15.211530386 -s 0 -d 3 -p cbr -e 532 -c 2 -a 0 -i 8 -k RTR
h -t 15.211530386 -s 0 -d 3 -p cbr -e 532 -c 2 -a 0 -i 8 -k RTR
+ -t 15.217540386 -s 3 -d 6 -p cbr -e 532 -c 2 -a 0 -i 8 -k RTR 
- -t 15.217540386 -s 3 -d 6 -p cbr -e 532 -c 2 -a 0 -i 8 -k RTR
h -t 15.217540386 -s 3 -d 6 -p cbr -e 532 -c 2 -a 0 -i 8 -k RTR
+ -t 15.223694386 -s 6 -d 7 -p cbr -e 532 -c 2 -a 0 -i 8 -k RTR 
- -t 15.223694386 -s 6 -d 7 -p cbr -e 532 -c 2 -a 0 -i 8 -k RTR
h -t 15.223694386 -s 6 -d 7 -p cbr -e 532 -c 2 -a 0 -i 8 -k RTR
r -t 15.229868386 -s 7 -d 7 -p cbr -e 512 -c 2 -a 0 -i 8 -k AGT
+ -t 15.276685748 -s 0 -d -1 -p cbr -e 512 -c 2 -a 0 -i 9 -k AGT 
- -t 15.276685748 -s 0 -d -1 -p cbr -e 512 -c 2 -a 0 -i 9 -k AGT
h -t 15.276685748 -s 0 -d -1 -p cbr -e 512 -c 2 -a 0 -i 9 -k AGT
+ -t 15.276685748 -s 0 -d 3 -p cbr -e 532 -c 2 -a 0 -i 9 -k RTR 
- -t 15.276685748 -s 0 -d 3 -p cbr -e 532 -c 2 -a 0 -i 9 -k RTR
h -t 15.276685748 -s 0 -d 3 -p cbr -e 532 -c 2 -a 0 -i 9 -k RTR
+ -t 15.282415748 -s 3 -d 6 -p cbr -e 532 -c 2 -a 0 -i 9 -k RTR 
- -t 15.282415748 -s 3 -d 6 -p cbr -e 532 -c 2 -a 0 -i 9 -k RTR
h -t 15.282415748 -s 3 -d 6 -p cbr -e 532 -c 2 -a 0 -i 9 -k RTR
+ -t 15.288209748 -s 6 -d 7 -p cbr -e 532 -c 2 -a 0 -i 9 -k RTR 
- -t 15.288209748 -s 6 -d 7 -p cbr -e 532 -c 2 -a 0 -i 9 -k RTR
h -t 15.288209748 -s 6 -d 7 -p cbr -e 532 -c 2 -a 0 -i 9 -k RTR
r -t 15.294023748 -s 7 -d 7 -p cbr -e 512 -c 2 -a 0 -i 9 -k AGT
+ -t 15.332904685 -s 0 -d -1 -p cbr -e 512 -c 2 -a 0 -i 10 -k AGT 
- -t 15.332904685 -s 0 -d -1 -p cbr -e 512 -c 2 -a 0 -i 10 -k AGT
h -t 15.332904685 -s 0 -d -1 -p cbr -e 512 -c 2 -a 0 -i 10 -k AGT
+ -t 15.332904685 -s 0 -d 3 -p cbr -e 532 -c 2 -a 0 -i 10 -k RTR 
- -t 15.332904685 -s 0 -d 3 -p cbr -e 532 -c 2 -a 0 -i 10 -k RTR
h -t 15.332904685 -s 0 -d 3 -p cbr -e 532 -c 2 -a 0 -i 10 -k RTR
+ -t 15.338834685 -s 3 -d 6 -p cbr -e 532 -c 2 -a 0 -i 10 -k RTR 
- -t 15.338834685 -s 3 -d 6 -p cbr -e 532 -c 2 -a 0 -i 10 -k RTR
h -t 15.338834685 -s 3 -d 6 -p cbr -e 532 -c 2 -a 0 -i 10 -k RTR
+ -t 15.345148685 -s 6 -d 7 -p cbr -e 532 -c 2 -a 0 -i 10 -k RTR 
- -t 15.345148685 -s 6 -d 7 -p cbr -e 532 -c 2 -a 0 -i 10 -k RTR
h -t 15.345148685 -s 6 -d 7 -p cbr -e 532 -c 2 -a 0 -i 10 -k RTR
r -t 15.351182685 -s 7 -d 7 -p cbr -e 512 -c 2 -a 0 -i 10 -k AGT
+ -t 15.370686304 -s 0 -d -1 -p cbr -e 512 -c 2 -a 0 -i 11 -k AGT 
- -t 15.370686304 -s 0 -d -1 -p cbr -e 512 -c 2 -a 0 -i 11 -k AGT
h -t 15.370686304 -s 0 -d -1 -p cbr -e 512 -c 2 -a 0 -i 11 -k AGT
+ -t 15.370686304 -s 0 -d 3 -p cbr -e 532 -c 2 -a 0 -i 11 -k RTR 
- -t 15.370686304 -s 0 -d 3 -p cbr -e 532 -c 2 -a 0 -i 11 -k RTR
h -t 15.370686304 -s 0 -d 3 -p cbr -e 532 -c 2 -a 0 -i 11 -k RTR
+ -t 15.376636304 -s 3 -d 6 -p cbr -e 532 -c 2 -a 0 -i 11 -k RTR 
- -t 15.376636304 -s 3 -d 6 -p cbr -e 532 -c 2 -a 0 -i 11 -k RTR
h -t 15.376636304 -s 3 -d 6 -p cbr -e 532 -c 2 -a 0 -i 11 -k RTR
+ -t 15.382510304 -s 6 -d 7 -p cbr -e 532 -c 2 -a 0 -i 11 -k RTR 
- -t 15.382510304 -s 6 -d 7 -p cbr -e 532 -c 2 -a 0 -i 11 -k RTR
h -t 15.382510304 -s 6 -d 7 -p cbr -e 532 -c 2 -a 0 -i 11 -k RTR
r -t 15.388384304 -s 7 -d 7 -p cbr -e 512 -c 2 -a 0 -i 11 -k AGT
+ -t 15.439211713 -s 0 -d -1 -p cbr -e 512 -c 2 -a 0 -i 12 -k AGT 
- -t 15.439211713 -s 0 -d -1 -p cbr -e 512 -c 2 -a 0 -i 12 -k AGT
h -t 15.439211713 -s 0 -d -1 -p cbr -e 512 -c 2 -a 0 -i 12 -k AGT
+ -t 15.439211713 -s 0 -d 3 -p cbr -e 532 -c 2 -a 0 -i 12 -k RTR 
- -t 15.439211713 -s 0 -d 3 -p cbr -e 532 -c 2 -a 0 -i 12 -k RTR
h -t 15.439211713 -s 0 -d 3 -p cbr -e 532 -c 2 -a 0 -i 12 -k RTR
+ -t 15.444801713 -s 3 -d 6 -p cbr -e 532 -c 2 -a 0 -i 12 -k RTR 
- -t 15.444801713 -s 3 -d 6 -p cbr -e 532 -c 2 -a 0 -i 12 -k RTR
h -t 15.444801713 -s 3 -d 6 -p cbr -e 532 -c 2 -a 0 -i 12 -k RTR
+ -t 15.450775713 -s 6 -d 7 -p cbr -e 532 -c 2 -a 0 -i 12 -k RTR 
- -t 15.450775713 -s 6 -d 7 -p cbr -e 532 -c 2 -a 0 -i 12 -k RTR
h -t 15.450775713 -s 6 -d 7 -p cbr -e 532 -c 2 -a 0 -i 12 -k RTR
r -t 15.456989713 -s 7 -d 7 -p cbr -e 512 -c 2 -a 0 -i 12 -k AGT
+ -t 15.488452375 -s 0 -d -1 -p cbr -e 512 -c 2 -a 0 -i 13 -k AGT 
- -t 15.488452375 -s 0 -d -1 -p cbr -e 512 -c 2 -a 0 -i 13 -k AGT
h -t 15.488452375 -s 0 -d -1 -p cbr -e 512 -c 2 -a 0 -i 13 -k AGT
+ -t 15.488452375 -s 0 -d 3 -p cbr -e 532 -c 2 -a 0 -i 13 -k RTR 
- -t 15.488452375 -s 0 -d 3 -p cbr -e 532 -c 2 -a 0 -i 13 -k RTR
h -t 15.488452375 -s 0 -d 3 -p cbr -e 532 -c 2 -a 0 -i 13 -k RTR
+ -t 15.493982375 -s 3 -d 6 -p cbr -e 532 -c 2 -a 0 -i 13 -k RTR 
- -t 15.493982375 -s 3 -d 6 -p cbr -e 532 -c 2 -a 0 -i 13 -k RTR
h -t 15.493982375 -s 3 -d 6 -p cbr -e 532 -c 2 -a 0 -i 13 -k RTR
+ -t 15.499916375 -s 6 -d 7 -p cbr -e 532 -c 2 -a 0 -i 13 -k RTR 
- -t 15.499916375 -s 6 -d 7 -p cbr -e 532 -c 2 -a 0 -i 13 -k RTR
h -t 15.499916375 -s 6 -d 7 -p cbr -e 532 -c 2 -a 0 -i 13 -k RTR
r -t 15.506210375 -s 7 -d 7 -p cbr -e 512 -c 2 -a 0 -i 13 -k AGT
+ -t 15.547440068 -s 0 -d -1 -p cbr -e 512 -c 2 -a 0 -i 14 -k AGT 
- -t 15.547440068 -s 0 -d -1 -p cbr -e 512 -c 2 -a 0 -i 14 -k AGT
h -t 15.547440068 -s 0 -d -1 -p cbr -e 512 -c 2 -a 0 -i 14 -k AGT
+ -t 15.547440068 -s 0 -d 3 -p cbr -e 532 -c 2 -a 0 -i 14 -k RTR 
- -t 15.547440068 -s 0 -d 3 -p cbr -e 532 -c 2 -a 0 -i 14 -k RTR
h -t 15.547440068 -s 0 -d 3 -p cbr -e 532 -c 2 -a 0 -i 14 -k RTR
+ -t 15.553330068 -s 3 -d 6 -p cbr -e 532 -c 2 -a 0 -i 14 -k RTR 
- -t 15.553330068 -s 3 -d 6 -p cbr -e 532 -c 2 -a 0 -i 14 -k RTR
h -t 15.553330068 -s 3 -d 6 -p cbr -e 532 -c 2 -a 0 -i 14 -k RTR
+ -t 15.559284068 -s 6 -d 7 -p cbr -e 532 -c 2 -a 0 -i 14 -k RTR 
- -t 15.559284068 -s 6 -d 7 -p cbr -e 532 -c 2 -a 0 -i 14 -k RTR
h -t 15.559284068 -s 6 -d 7 -p cbr -e 532 -c 2 -a 0 -i 14 -k RTR
r -t 15.565178068 -s 7 -d 7 -p cbr -e 512 -c 2 -a 0 -i 14 -k AGT
+ -t 15.611644843 -s 0 -d -1 -p cbr -e 512 -c 2 -a 0 -i 15 -k AGT 
- -t 15.611644843 -s 0 -d -1 -p cbr -e 512 -c 2 -a 0 -i 15 -k AGT
h -t 15.611644843 -s 0 -d -1 -p cbr -e 512 -c 2 -a 0 -i 15 -k AGT
+ -t 15.611644843 -s 0 -d 3 -p cbr -e 532 -c 2 -a 0 -i 15 -k RTR 
- -t 15.611644843 -s 0 -d 3 -p cbr -e 532 -c 2 -a 0 -i 15 -k RTR
h -t 15.611644843 -s 0 -d 3 -p cbr -e 532 -c 2 -a 0 -i 15 -k RTR
+ -t 15.617234843 -s 3 -d 6 -p cbr -e 532 -c 2 -a 0 -i 15 -k RTR 
- -t 15.617234843 -s 3 -d 6 -p cbr -e 532 -c 2 -a 0 -i 15 -k RTR
h -t 15.617234843 -s 3 -d 6 -p cbr -e 532 -c 2 -a 0 -i 15 -k RTR
+ -t 15.623008843 -s 6 -d 7 -p cbr -e 532 -c 2 -a 0 -i 15 -k RTR 
- -t 15.623008843 -s 6 -d 7 -p cbr -e 532 -c 2 -a 0 -i 15 -k RTR
h -t 15.623008843 -s 6 -d 7 -p cbr -e 532 -c 2 -a 0 -i 15 -k RTR
r -t 15.628982843 -s 7 -d 7 -p cbr -e 512 -c 2 -a 0 -i 15 -k AGT
+ -t 15.640400194 -s 0 -d -1 -p cbr -e 512 -c 2 -a 0 -i 16 -k AGT 
- -t 15.640400194 -s 0 -d -1 -p cbr -e 512 -c 2 -a 0 -i 16 -k AGT
h -t 15.640400194 -s 0 -d -1 -p cbr -e 512 -c 2 -a 0 -i 16 -k AGT
+ -t 15.640400194 -s 0 -d 3 -p cbr -e 532 -c 2 -a 0 -i 16 -k RTR 
- -t 15.640400194 -s 0 -d 3 -p cbr -e 532 -c 2 -a 0 -i 16 -k RTR
h -t 15.640400194 -s 0 -d 3 -p cbr -e 532 -c 2 -a 0 -i 16 -k RTR
+ -t 15.646090194 -s 3 -d 6 -p cbr -e 532 -c 2 -a 0 -i 16 -k RTR 
- -t 15.646090194 -s 3 -d 6 -p cbr -e 532 -c 2 -a 0 -i 16 -k RTR
h -t 15.646090194 -s 3 -d 6 -p cbr -e 532 -c 2 -a 0 -i 16 -k RTR
+ -t 15.652004194 -s 6 -d 7 -p cbr -e 532 -c 2 -a 0 -i 16 -k RTR 
- -t 15.652004194 -s 6 -d 7 -p cbr -e 532 -c 2 -a 0 -i 16 -k RTR
h -t 15.652004194 -s 6 -d 7 -p cbr -e 532 -c 2 -a 0 -i 16 -k RTR
r -t 15.657898194 -s 7 -d 7 -p cbr -e 512 -c 2 -a 0 -i 16 -k AGT
+ -t 15.681549023 -s 0 -d -1 -p cbr -e 512 -c 2 -a 0 -i 17 -k AGT 
- -t 15.681549023 -s 0 -d -1 -p cbr -e 512 -c 2 -a 0 -i 17 -k AGT
h -t 15.681549023 -s 0 -d -1 -p cbr -e 512 -c 2 -a 0 -i 17 -k AGT
+ -t 15.681549023 -s 0 -d 3 -p cbr -e 532 -c 2 -a 0 -i 17 -k RTR 
- -t 15.681549023 -s 0 -d 3 -p cbr -e 532 -c 2 -a 0 -i 17 -k RTR
h -t 15.681549023 -s 0 -d 3 -p cbr -e 532 -c 2 -a 0 -i 17 -k RTR
+ -t 15.687539023 -s 3 -d 6 -p cbr -e 532 -c 2 -a 0 -i 17 -k RTR 
- -t 15.687539023 -s 3 -d 6 -p cbr -e 532 -c 2 -a 0 -i 17 -k RTR
h -t 15.687539023 -s 3 -d 6 -p cbr -e 532 -c 2 -a 0 -i 17 -k RTR
+ -t 15.693393023 -s 6 -d 7 -p cbr -e 532 -c 2 -a 0 -i 17 -k RTR 
- -t 15.693393023 -s 6 -d 7 -p cbr -e 532 -c 2 -a 0 -i 17 -k RTR
h -t 15.693393023 -s 6 -d 7 -p cbr -e 532 -c 2 -a 0 -i 17 -k RTR
r -t 15.699207023 -s 7 -d 7 -p cbr -e 512 -c 2 -a 0 -i 17 -k AGT
+ -t 15.742976794 -s 0 -d -1 -p cbr -e 512 -c 2 -a 0 -i 18 -k AGT 
- -t 15.742976794 -s 0 -d -1 -p cbr -e 512 -c 2 -a 0 -i 18 -k AGT
h -t 15.742976794 -s 0 -d -1 -p cbr -e 512 -c 2 -a 0 -i 18 -k AGT
+ -t 15.742976794 -s 0 -d 3 -p cbr -e 532 -c 2 -a 0 -i 18 -k RTR 
- -t 15.742976794 -s 0 -d 3 -p cbr -e 532 -c 2 -a 0 -i 18 -k RTR
h -t 15.742976794 -s 0 -d 3 -p cbr -e 532 -c 2 -a 0 -i 18 -k RTR
+ -t 15.748486794 -s 3 -d 6 -p cbr -e 532 -c 2 -a 0 -i 18 -k RTR 
- -t 15.748486794 -s 3 -d 6 -p cbr -e 532 -c 2 -a 0 -i 18 -k RTR
h -t 15.748486794 -s 3 -d 6 -p cbr -e 532 -c 2 -a 0 -i 18 -k RTR
+ -t 15.754560794 -s 6 -d 7 -p cbr -e 532 -c 2 -a 0 -i 18 -k RTR 
- -t 15.754560794 -s 6 -d 7 -p cbr -e 532 -c 2 -a 0 -i 18 -k RTR
h -t 15.754560794 -s 6 -d 7 -p cbr -e 532 -c 2 -a 0 -i 18 -k RTR
r -t 15.760474794 -s 7 -d 7 -p cbr -e 512 -c 2 -a 0 -i 18 -k AGT
+ -t 15.791541832 -s 0 -d -1 -p cbr -e 512 -c 2 -a 0 -i 19 -k AGT 
- -t 15.791541832 -s 0 -d -1 -p cbr -e 512 -c 2 -a 0 -i 19 -k AGT
h -t 15.791541832 -s 0 -d -1 -p cbr -e 512 -c 2 -a 0 -i 19 -k AGT
+ -t 15.791541832 -s 0 -d 3 -p cbr -e 532 -c 2 -a 0 -i 19 -k RTR 
- -t 15.791541832 -s 0 -d 3 -p cbr -e 532 -c 2 -a 0 -i 19 -k RTR
h -t 15.791541832 -s 0 -d 3 -p cbr -e 532 -c 2 -a 0 -i 19 -k RTR
+ -t 15.797151832 -s 3 -d 6 -p cbr -e 532 -c 2 -a 0 -i 19 -k RTR 
- -t 15.797151832 -s 3 -d 6 -p cbr -e 532 -c 2 -a 0 -i 19 -k RTR
h -t 15.797151832 -s 3 -d 6 -p cbr -e 532 -c 2 -a 0 -i 19 -k RTR
+ -t 15.803325832 -s 6 -d 7 -p cbr -e 532 -c 2 -a 0 -i 19 -k RTR 
- -t 15.803325832 -s 6 -d 7 -p cbr -e 532 -c 2 -a 0 -i 19 -k RTR
h -t 15.803325832 -s 6 -d 7 -p cbr -e 532 -c 2 -a 0 -i 19 -k RTR
r -t 15.809639832 -s 7 -d 7 -p cbr -e 512 -c 2 -a 0 -i 19 -k AGT
+ -t 15.846021090 -s 0 -d -1 -p cbr -e 512 -c 2 -a 0 -i 20 -k AGT 
- -t 15.846021090 -s 0 -d -1 -p cbr -e 512 -c 2 -a 0 -i 20 -k AGT
h -t 15.846021090 -s 0 -d -1 -p cbr -e 512 -c 2 -a 0 -i 20 -k AGT
+ -t 15.846021090 -s 0 -d 3 -p cbr -e 532 -c 2 -a 0 -i 20 -k RTR 
- -t 15.846021090 -s 0 -d 3 -p cbr -e 532 -c 2 -a 0 -i 20 -k RTR
h -t 15.846021090 -s 0 -d 3 -p cbr -e 532 -c 2 -a 0 -i 20 -k RTR
+ -t 15.851991090 -s 3 -d 6 -p cbr -e 532 -c 2 -a 0 -i 20 -k RTR 
- -t 15.851991090 -s 3 -d 6 -p cbr -e 532 -c 2 -a 0 -i 20 -k RTR
h -t 15.851991090 -s 3 -d 6 -p cbr -e 532 -c 2 -a 0 -i 20 -k RTR
+ -t 15.858145090 -s 6 -d 7 -p cbr -e 532 -c 2 -a 0 -i 20 -k RTR 
- -t 15.858145090 -s 6 -d 7 -p cbr -e 532 -c 2 -a 0 -i 20 -k RTR
h -t 15.858145090 -s 6 -d 7 -p cbr -e 532 -c 2 -a 0 -i 20 -k RTR
r -t 15.864139090 -s 7 -d 7 -p cbr -e 512 -c 2 -a 0 -i 20 -k AGT
+ -t 15.898771714 -s 0 -d -1 -p cbr -e 512 -c 2 -a 0 -i 21 -k AGT 
- -t 15.898771714 -s 0 -d -1 -p cbr -e 512 -c 2 -a 0 -i 21 -k AGT
h -t 15.898771714 -s 0 -d -1 -p cbr -e 512 -c 2 -a 0 -i 21 -k AGT
+ -t 15.898771714 -s 0 -d 3 -p cbr -e 532 -c 2 -a 0 -i 21 -k RTR 
- -t 15.898771714 -s 0 -d 3 -p cbr -e 532 -c 2 -a 0 -i 21 -k RTR
h -t 15.898771714 -s 0 -d 3 -p cbr -e 532 -c 2 -a 0 -i 21 -k RTR
+ -t 15.904621714 -s 3 -d 6 -p cbr -e 532 -c 2 -a 0 -i 21 -k RTR 
- -t 15.904621714 -s 3 -d 6 -p cbr -e 532 -c 2 -a 0 -i 21 -k RTR
h -t 15.904621714 -s 3 -d 6 -p cbr -e 532 -c 2 -a 0 -i 21 -k RTR
+ -t 15.910415714 -s 6 -d 7 -p cbr -e 532 -c 2 -a 0 -i 21 -k RTR 
- -t 15.910415714 -s 6 -d 7 -p cbr -e 532 -c 2 -a 0 -i 21 -k RTR
h -t 15.910415714 -s 6 -d 7 -p cbr -e 532 -c 2 -a 0 -i 21 -k RTR
r -t 15.916149714 -s 7 -d 7 -p cbr -e 512 -c 2 -a 0 -i 21 -k AGT
+ -t 15.929137306 -s 0 -d -1 -p cbr -e 512 -c 2 -a 0 -i 22 -k AGT 
- -t 15.929137306 -s 0 -d -1 -p cbr -e 512 -c 2 -a 0 -i 22 -k AGT
h -t 15.929137306 -s 0 -d -1 -p cbr -e 512 -c 2 -a 0 -i 22 -k AGT
+ -t 15.929137306 -s 0 -d 3 -p cbr -e 532 -c 2 -a 0 -i 22 -k RTR 
- -t 15.929137306 -s 0 -d 3 -p cbr -e 532 -c 2 -a 0 -i 22 -k RTR
h -t 15.929137306 -s 0 -d 3 -p cbr -e 532 -c 2 -a 0 -i 22 -k RTR
+ -t 15.934767306 -s 3 -d 6 -p cbr -e 532 -c 2 -a 0 -i 22 -k RTR 
- -t 15.934767306 -s 3 -d 6 -p cbr -e 532 -c 2 -a 0 -i 22 -k RTR
h -t 15.934767306 -s 3 -d 6 -p cbr -e 532 -c 2 -a 0 -i 22 -k RTR
+ -t 15.940561306 -s 6 -d 7 -p cbr -e 532 -c 2 -a 0 -i 22 -k RTR 
- -t 15.940561306 -s 6 -d 7 -p cbr -e 532 -c 2 -a 0 -i 22 -k RTR
h -t 15.940561306 -s 6 -d 7 -p cbr -e 532 -c 2 -a 0 -i 22 -k RTR
r -t 15.946295306 -s 7 -d 7 -p cbr -e 512 -c 2 -a 0 -i 22 -k AGT
+ -t 15.965119554 -s 0 -d -1 -p cbr -e 512 -c 2 -a 0 -i 23 -k AGT 
- -t 15.965119554 -s 0 -d -1 -p cbr -e 512 -c 2 -a 0 -i 23 -k AGT
h -t 15.965119554 -s 0 -d -1 -p cbr -e 512 -c 2 -a 0 -i 23 -k AGT
+ -t 15.965119554 -s 0 -d 3 -p cbr -e 532 -c 2 -a 0 -i 23 -k RTR 
- -t 15.965119554 -s 0 -d 3 -p cbr -e 532 -c 2 -a 0 -i 23 -k RTR
h -t 15.965119554 -s 0 -d 3 -p cbr -e 532 -c 2 -a 0 -i 23 -k RTR
+ -t 15.971089554 -s 3 -d 6 -p cbr -e 532 -c 2 -a 0 -i 23 -k RTR 
- -t 15.971089554 -s 3 -d 6 -p cbr -e 532 -c 2 -a 0 -i 23 -k RTR
h -t 15.971089554 -s 3 -d 6 -p cbr -e 532 -c 2 -a 0 -i 23 -k RTR
+ -t 15.976803554 -s 6 -d 7 -p cbr -e 532 -c 2 -a 0 -i 23 -k RTR 
- -t 15.976803554 -s 6 -d 7 -p cbr -e 532 -c 2 -a 0 -i 23 -k RTR
h -t 15.976803554 -s 6 -d 7 -p cbr -e 532 -c 2 -a 0 -i 23 -k RTR
r -t 15.982977554 -s 7 -d 7 -p cbr -e 512 -c 2 -a 0 -i 23 -k AGT
+ -t 16.000466363 -s 0 -d -1 -p cbr -e 512 -c 2 -a 0 -i 24 -k AGT 
- -t 16.000466363 -s 0 -d -1 -p cbr -e 512 -c 2 -a 0 -i 24 -k AGT
h -t 16.000466363 -s 0 -d -1 -p cbr -e 512 -c 2 -a 0 -i 24 -k AGT
+ -t 16.000466363 -s 0 -d 3 -p cbr -e 532 -c 2 -a 0 -i 24 -k RTR 
- -t 16.000466363 -s 0 -d 3 -p cbr -e 532 -c 2 -a 0 -i 24 -k RTR
h -t 16.000466363 -s 0 -d 3 -p cbr -e 532 -c 2 -a 0 -i 24 -k RTR
+ -t 16.005996363 -s 3 -d 6 -p cbr -e 532 -c 2 -a 0 -i 24 -k RTR 
- -t 16.005996363 -s 3 -d 6 -p cbr -e 532 -c 2 -a 0 -i 24 -k RTR
h -t 16.005996363 -s 3 -d 6 -p cbr -e 532 -c 2 -a 0 -i 24 -k RTR
+ -t 16.012070363 -s 6 -d 7 -p cbr -e 532 -c 2 -a 0 -i 24 -k RTR 
- -t 16.012070363 -s 6 -d 7 -p cbr -e 532 -c 2 -a 0 -i 24 -k RTR
h -t 16.012070363 -s 6 -d 7 -p cbr -e 532 -c 2 -a 0 -i 24 -k RTR
r -t 16.017864363 -s 7 -d 7 -p cbr -e 512 -c 2 -a 0 -i 24 -k AGT
+ -t 16.046581849 -s 0 -d -1 -p cbr -e 512 -c 2 -a 0 -i 25 -k AGT 
- -t 16.046581849 -s 0 -d -1 -p cbr -e 512 -c 2 -a 0 -i 25 -k AGT
h -t 16.046581849 -s 0 -d -1 -p cbr -e 512 -c 2 -a 0 -i 25 -k AGT
+ -t 16.046581849 -s 0 -d 3 -p cbr -e 532 -c 2 -a 0 -i 25 -k RTR 
- -t 16.046581849 -s 0 -d 3 -p cbr -e 532 -c 2 -a 0 -i 25 -k RTR
h -t 16.046581849 -s 0 -d 3 -p cbr -e 532 -c 2 -a 0 -i 25 -k RTR
+ -t 16.052231849 -s 3 -d 6 -p cbr -e 532 -c 2 -a 0 -i 25 -k RTR 
- -t 16.052231849 -s 3 -d 6 -p cbr -e 532 -c 2 -a 0 -i 25 -k RTR
h -t 16.052231849 -s 3 -d 6 -p cbr -e 532 -c 2 -a 0 -i 25 -k RTR
+ -t 16.057945849 -s 6 -d 7 -p cbr -e 532 -c 2 -a 0 -i 25 -k RTR 
- -t 16.057945849 -s 6 -d 7 -p cbr -e 532 -c 2 -a 0 -i 25 -k RTR
h -t 16.057945849 -s 6 -d 7 -p cbr -e 532 -c 2 -a 0 -i 25 -k RTR
r -t 16.063979849 -s 7 -d 7 -p cbr -e 512 -c 2 -a 0 -i 25 -k AGT
+ -t 16.104150286 -s 0 -d -1 -p cbr -e 512 -c 2 -a 0 -i 26 -k AGT 
- -t 16.104150286 -s 0 -d -1 -p cbr -e 512 -c 2 -a 0 -i 26 -k AGT
h -t 16.104150286 -s 0 -d -1 -p cbr -e 512 -c 2 -a 0 -i 26 -k AGT
+ -t 16.104150286 -s 0 -d 3 -p cbr -e 532 -c 2 -a 0 -i 26 -k RTR 
- -t 16.104150286 -s 0 -d 3 -p cbr -e 532 -c 2 -a 0 -i 26 -k RTR
h -t 16.104150286 -s 0 -d 3 -p cbr -e 532 -c 2 -a 0 -i 26 -k RTR
+ -t 16.109620286 -s 3 -d 6 -p cbr -e 532 -c 2 -a 0 -i 26 -k RTR 
- -t 16.109620286 -s 3 -d 6 -p cbr -e 532 -c 2 -a 0 -i 26 -k RTR
h -t 16.109620286 -s 3 -d 6 -p cbr -e 532 -c 2 -a 0 -i 26 -k RTR
+ -t 16.115714286 -s 6 -d 7 -p cbr -e 532 -c 2 -a 0 -i 26 -k RTR 
- -t 16.115714286 -s 6 -d 7 -p cbr -e 532 -c 2 -a 0 -i 26 -k RTR
h -t 16.115714286 -s 6 -d 7 -p cbr -e 532 -c 2 -a 0 -i 26 -k RTR
r -t 16.121928286 -s 7 -d 7 -p cbr -e 512 -c 2 -a 0 -i 26 -k AGT
+ -t 16.146285560 -s 0 -d -1 -p cbr -e 512 -c 2 -a 0 -i 27 -k AGT 
- -t 16.146285560 -s 0 -d -1 -p cbr -e 512 -c 2 -a 0 -i 27 -k AGT
h -t 16.146285560 -s 0 -d -1 -p cbr -e 512 -c 2 -a 0 -i 27 -k AGT
+ -t 16.146285560 -s 0 -d 3 -p cbr -e 532 -c 2 -a 0 -i 27 -k RTR 
- -t 16.146285560 -s 0 -d 3 -p cbr -e 532 -c 2 -a 0 -i 27 -k RTR
h -t 16.146285560 -s 0 -d 3 -p cbr -e 532 -c 2 -a 0 -i 27 -k RTR
+ -t 16.151995560 -s 3 -d 6 -p cbr -e 532 -c 2 -a 0 -i 27 -k RTR 
- -t 16.151995560 -s 3 -d 6 -p cbr -e 532 -c 2 -a 0 -i 27 -k RTR
h -t 16.151995560 -s 3 -d 6 -p cbr -e 532 -c 2 -a 0 -i 27 -k RTR
+ -t 16.157809560 -s 6 -d 7 -p cbr -e 532 -c 2 -a 0 -i 27 -k RTR 
- -t 16.157809560 -s 6 -d 7 -p cbr -e 532 -c 2 -a 0 -i 27 -k RTR
h -t 16.157809560 -s 6 -d 7 -p cbr -e 532 -c 2 -a 0 -i 27 -k RTR
r -t 16.163923560 -s 7 -d 7 -p cbr -e 512 -c 2 -a 0 -i 27 -k AGT
+ -t 16.202247995 -s 0 -d -1 -p cbr -e 512 -c 2 -a 0 -i 28 -k AGT 
- -t 16.202247995 -s 0 -d -1 -p cbr -e 512 -c 2 -a 0 -i 28 -k AGT
h -t 16.202247995 -s 0 -d -1 -p cbr -e 512 -c 2 -a 0 -i 28 -k AGT
+ -t 16.202247995 -s 0 -d 3 -p cbr -e 532 -c 2 -a 0 -i 28 -k RTR 
- -t 16.202247995 -s 0 -d 3 -p cbr -e 532 -c 2 -a 0 -i 28 -k RTR
h -t 16.202247995 -s 0 -d 3 -p cbr -e 532 -c 2 -a 0 -i 28 -k RTR
+ -t 16.207777995 -s 3 -d 6 -p cbr -e 532 -c 2 -a 0 -i 28 -k RTR 
- -t 16.207777995 -s 3 -d 6 -p cbr -e 532 -c 2 -a 0 -i 28 -k RTR
h -t 16.207777995 -s 3 -d 6 -p cbr -e 532 -c 2 -a 0 -i 28 -k RTR
+ -t 16.213691995 -s 6 -d 7 -p cbr -e 532 -c 2 -a 0 -i 28 -k RTR 
- -t 16.213691995 -s 6 -d 7 -p cbr -e 532 -c 2 -a 0 -i 28 -k RTR
h -t 16.213691995 -s 6 -d 7 -p cbr -e 532 -c 2 -a 0 -i 28 -k RTR
r -t 16.219785995 -s 7 -d 7 -p cbr -e 512 -c 2 -a 0 -i 28 -k AGT
+ -t 16.269849021 -s 0 -d -1 -p cbr -e 512 -c 2 -a 0 -i 29 -k AGT 
- -t 16.269849021 -s 0 -d -1 -p cbr -e 512 -c 2 -a 0 -i 29 -k AGT
h -t 16.269849021 -s 0 -d -1 -p cbr -e 512 -c 2 -a 0 -i 29 -k AGT
+ -t 16.269849021 -s 0 -d 3 -p cbr -e 532 -c 2 -a 0 -i 29 -k RTR 
- -t 16.269849021 -s 0 -d 3 -p cbr -e 532 -c 2 -a 0 -i 29 -k RTR
h -t 16.269849021 -s 0 -d 3 -p cbr -e 532 -c 2 -a 0 -i 29 -k RTR
+ -t 16.275879021 -s 3 -d 6 -p cbr -e 532 -c 2 -a 0 -i 29 -k RTR 
- -t 16.275879021 -s 3 -d 6 -p cbr -e 532 -c 2 -a 0 -i 29 -k RTR
h -t 16.275879021 -s 3 -d 6 -p cbr -e 532 -c 2 -a 0 -i 29 -k RTR
+ -t 16.281653021 -s 6 -d 7 -p cbr -e 532 -c 2 -a 0 -i 29 -k RTR 
- -t 16.281653021 -s 6 -d 7 -p cbr -e 532 -c 2 -a 0 -i 29 -k RTR
h -t 16.281653021 -s 6 -d 7 -p cbr -e 532 -c 2 -a 0 -i 29 -k RTR
r -t 16.287387021 -s 7 -d 7 -p cbr -e 512 -c 2 -a 0 -i 29 -k AGT
+ -t 16.300132372 -s 0 -d -1 -p cbr -e 512 -c 2 -a 0 -i 30 -k AGT 
- -t 16.300132372 -s 0 -d -1 -p cbr -e 512 -c 2 -a 0 -i 30 -k AGT
h -t 16.300132372 -s 0 -d -1 -p cbr -e 512 -c 2 -a 0 -i 30 -k AGT
+ -t 16.300132372 -s 0 -d 3 -p cbr -e 532 -c 2 -a 0 -i 30 -k RTR 
- -t 16.300132372 -s 0 -d 3 -p cbr -e 532 -c 2 -a 0 -i 30 -k RTR
h -t 16.300132372 -s 0 -d 3 -p cbr -e 532 -c 2 -a 0 -i 30 -k RTR
+ -t 16.305602372 -s 3 -d 6 -p cbr -e 532 -c 2 -a 0 -i 30 -k RTR 
- -t 16.305602372 -s 3 -d 6 -p cbr -e 532 -c 2 -a 0 -i 30 -k RTR
h -t 16.305602372 -s 3 -d 6 -p cbr -e 532 -c 2 -a 0 -i 30 -k RTR
+ -t 16.311916372 -s 6 -d 7 -p cbr -e 532 -c 2 -a 0 -i 30 -k RTR 
- -t 16.311916372 -s 6 -d 7 -p cbr -e 532 -c 2 -a 0 -i 30 -k RTR
h -t 16.311916372 -s 6 -d 7 -p cbr -e 532 -c 2 -a 0 -i 30 -k RTR
r -t 16.318070372 -s 7 -d 7 -p cbr -e 512 -c 2 -a 0 -i 30 -k AGT
+ -t 16.325617099 -s 0 -d -1 -p cbr -e 512 -c 2 -a 0 -i 31 -k AGT 
- -t 16.325617099 -s 0 -d -1 -p cbr -e 512 -c 2 -a 0 -i 31 -k AGT
h -t 16.325617099 -s 0 -d -1 -p cbr -e 512 -c 2 -a 0 -i 31 -k AGT
+ -t 16.325617099 -s 0 -d 3 -p cbr -e 532 -c 2 -a 0 -i 31 -k RTR 
- -t 16.325617099 -s 0 -d 3 -p cbr -e 532 -c 2 -a 0 -i 31 -k RTR
h -t 16.325617099 -s 0 -d 3 -p cbr -e 532 -c 2 -a 0 -i 31 -k RTR
+ -t 16.331527099 -s 3 -d 6 -p cbr -e 532 -c 2 -a 0 -i 31 -k RTR 
- -t 16.331527099 -s 3 -d 6 -p cbr -e 532 -c 2 -a 0 -i 31 -k RTR
h -t 16.331527099 -s 3 -d 6 -p cbr -e 532 -c 2 -a 0 -i 31 -k RTR
+ -t 16.337841099 -s 6 -d 7 -p cbr -e 532 -c 2 -a 0 -i 31 -k RTR 
- -t 16.337841099 -s 6 -d 7 -p cbr -e 532 -c 2 -a 0 -i 31 -k RTR
h -t 16.337841099 -s 6 -d 7 -p cbr -e 532 -c 2 -a 0 -i 31 -k RTR
r -t 16.343895099 -s 7 -d 7 -p cbr -e 512 -c 2 -a 0 -i 31 -k AGT
+ -t 16.387895396 -s 0 -d -1 -p cbr -e 512 -c 2 -a 0 -i 32 -k AGT 
- -t 16.387895396 -s 0 -d -1 -p cbr -e 512 -c 2 -a 0 -i 32 -k AGT
h -t 16.387895396 -s 0 -d -1 -p cbr -e 512 -c 2 -a 0 -i 32 -k AGT
+ -t 16.387895396 -s 0 -d 3 -p cbr -e 532 -c 2 -a 0 -i 32 -k RTR 
- -t 16.387895396 -s 0 -d 3 -p cbr -e 532 -c 2 -a 0 -i 32 -k RTR
h -t 16.387895396 -s 0 -d 3 -p cbr -e 532 -c 2 -a 0 -i 32 -k RTR
+ -t 16.393745396 -s 3 -d 6 -p cbr -e 532 -c 2 -a 0 -i 32 -k RTR 
- -t 16.393745396 -s 3 -d 6 -p cbr -e 532 -c 2 -a 0 -i 32 -k RTR
h -t 16.393745396 -s 3 -d 6 -p cbr -e 532 -c 2 -a 0 -i 32 -k RTR
+ -t 16.399839396 -s 6 -d 7 -p cbr -e 532 -c 2 -a 0 -i 32 -k RTR 
- -t 16.399839396 -s 6 -d 7 -p cbr -e 532 -c 2 -a 0 -i 32 -k RTR
h -t 16.399839396 -s 6 -d 7 -p cbr -e 532 -c 2 -a 0 -i 32 -k RTR
r -t 16.405873396 -s 7 -d 7 -p cbr -e 512 -c 2 -a 0 -i 32 -k AGT
+ -t 16.425668415 -s 0 -d -1 -p cbr -e 512 -c 2 -a 0 -i 33 -k AGT 
- -t 16.425668415 -s 0 -d -1 -p cbr -e 512 -c 2 -a 0 -i 33 -k AGT
h -t 16.425668415 -s 0 -d -1 -p cbr -e 512 -c 2 -a 0 -i 33 -k AGT
+ -t 16.425668415 -s 0 -d 3 -p cbr -e 532 -c 2 -a 0 -i 33 -k RTR 
- -t 16.425668415 -s 0 -d 3 -p cbr -e 532 -c 2 -a 0 -i 33 -k RTR
h -t 16.425668415 -s 0 -d 3 -p cbr -e 532 -c 2 -a 0 -i 33 -k RTR
+ -t 16.431278415 -s 3 -d 6 -p cbr -e 532 -c 2 -a 0 -i 33 -k RTR 
- -t 16.431278415 -s 3 -d 6 -p cbr -e 532 -c 2 -a 0 -i 33 -k RTR
h -t 16.431278415 -s 3 -d 6 -p cbr -e 532 -c 2 -a 0 -i 33 -k RTR
+ -t 16.437492415 -s 6 -d 7 -p cbr -e 532 -c 2 -a 0 -i 33 -k RTR 
- -t 16.437492415 -s 6 -d 7 -p cbr -e 532 -c 2 -a 0 -i 33 -k RTR
h -t 16.437492415 -s 6 -d 7 -p cbr -e 532 -c 2 -a 0 -i 33 -k RTR
r -t 16.443726415 -s 7 -d 7 -p cbr -e 512 -c 2 -a 0 -i 33 -k AGT
+ -t 16.457753461 -s 0 -d -1 -p cbr -e 512 -c 2 -a 0 -i 34 -k AGT 
- -t 16.457753461 -s 0 -d -1 -p cbr -e 512 -c 2 -a 0 -i 34 -k AGT
h -t 16.457753461 -s 0 -d -1 -p cbr -e 512 -c 2 -a 0 -i 34 -k AGT
+ -t 16.457753461 -s 0 -d 3 -p cbr -e 532 -c 2 -a 0 -i 34 -k RTR 
- -t 16.457753461 -s 0 -d 3 -p cbr -e 532 -c 2 -a 0 -i 34 -k RTR
h -t 16.457753461 -s 0 -d 3 -p cbr -e 532 -c 2 -a 0 -i 34 -k RTR
+ -t 16.463683461 -s 3 -d 6 -p cbr -e 532 -c 2 -a 0 -i 34 -k RTR 
- -t 16.463683461 -s 3 -d 6 -p cbr -e 532 -c 2 -a 0 -i 34 -k RTR
h -t 16.463683461 -s 3 -d 6 -p cbr -e 532 -c 2 -a 0 -i 34 -k RTR
+ -t 16.469717461 -s 6 -d 7 -p cbr -e 532 -c 2 -a 0 -i 34 -k RTR 
- -t 16.469717461 -s 6 -d 7 -p cbr -e 532 -c 2 -a 0 -i 34 -k RTR
h -t 16.469717461 -s 6 -d 7 -p cbr -e 532 -c 2 -a 0 -i 34 -k RTR
r -t 16.475611461 -s 7 -d 7 -p cbr -e 512 -c 2 -a 0 -i 34 -k AGT
+ -t 16.518074941 -s 0 -d -1 -p cbr -e 512 -c 2 -a 0 -i 35 -k AGT 
- -t 16.518074941 -s 0 -d -1 -p cbr -e 512 -c 2 -a 0 -i 35 -k AGT
h -t 16.518074941 -s 0 -d -1 -p cbr -e 512 -c 2 -a 0 -i 35 -k AGT
+ -t 16.518074941 -s 0 -d 3 -p cbr -e 532 -c 2 -a 0 -i 35 -k RTR 
- -t 16.518074941 -s 0 -d 3 -p cbr -e 532 -c 2 -a 0 -i 35 -k RTR
h -t 16.518074941 -s 0 -d 3 -p cbr -e 532 -c 2 -a 0 -i 35 -k RTR
+ -t 16.523684941 -s 3 -d 6 -p cbr -e 532 -c 2 -a 0 -i 35 -k RTR 
- -t 16.523684941 -s 3 -d 6 -p cbr -e 532 -c 2 -a 0 -i 35 -k RTR
h -t 16.523684941 -s 3 -d 6 -p cbr -e 532 -c 2 -a 0 -i 35 -k RTR
+ -t 16.529838941 -s 6 -d 7 -p cbr -e 532 -c 2 -a 0 -i 35 -k RTR 
- -t 16.529838941 -s 6 -d 7 -p cbr -e 532 -c 2 -a 0 -i 35 -k RTR
h -t 16.529838941 -s 6 -d 7 -p cbr -e 532 -c 2 -a 0 -i 35 -k RTR
r -t 16.535632941 -s 7 -d 7 -p cbr -e 512 -c 2 -a 0 -i 35 -k AGT