Sconfig 0.00000 tap: on snoop: rts? on errs? on
Sconfig 0.00000 salvage: on !bd replies? on
Sconfig 0.00000 grat error: on grat reply: on
Sconfig 0.00000 $reply for props: on ring 0 search: on
Sconfig 0.00000 using MOBICACHE
s 15.000000000 _0_ AGT  --- 0 cbr 512 [0 0 0 0] ------- [0:0 18:0 32 0] [0] 0 0
r 15.000000000 _0_ RTR  --- 0 cbr 512 [0 0 0 0] ------- [0:0 18:0 32 0] [0] 0 0
s 15.000000000 _3_ AGT  --- 2 cbr 512 [0 0 0 0] ------- [3:0 18:1 32 0] [0] 0 0
r 15.000000000 _3_ RTR  --- 2 cbr 512 [0 0 0 0] ------- [3:0 18:1 32 0] [0] 0 0
s 15.000000000 _7_ AGT  --- 4 cbr 512 [0 0 0 0] ------- [7:0 11:0 32 0] [0] 0 0
r 15.000000000 _7_ RTR  --- 4 cbr 512 [0 0 0 0] ------- [7:0 11:0 32 0] [0] 0 0
s 15.000192043 _3_ RTR  --- 3 DSR 32 [0 0 0 0] ------- [3:255 18:255 32 0] 1 [1 1] [0 1 0 0->0] [0 0 0 0->0]
r 15.001204376 _0_ RTR  --- 3 DSR 32 [0 ffffffff 3 800] ------- [3:255 18:255 32 0] 1 [1 1] [0 1 0 0->0] [0 0 0 0->0]
r 15.001204376 _6_ RTR  --- 3 DSR 32 [0 ffffffff 3 800] ------- [3:255 18:255 32 0] 1 [1 1] [0 1 0 0->0] [0 0 0 0->0]
r 15.001204710 _9_ RTR  --- 3 DSR 32 [0 ffffffff 3 800] ------- [3:255 18:255 32 0] 1 [1 1] [0 1 0 0->0] [0 0 0 0->0]
r 15.001204710 _4_ RTR  --- 3 DSR 32 [0 ffffffff 3 800] ------- [3:255 18:255 32 0] 1 [1 1] [0 1 0 0->0] [0 0 0 0->0]
r 15.001204788 _1_ RTR  --- 3 DSR 32 [0 ffffffff 3 800] ------- [3:255 18:255 32 0] 1 [1 1] [0 1 0 0->0] [0 0 0 0->0]
r 15.001204788 _7_ RTR  --- 3 DSR 32 [0 ffffffff 3 800] ------- [3:255 18:255 32 0] 1 [1 1] [0 1 0 0->0] [0 0 0 0->0]
s 15.001436295 _0_ RTR  --- 1 DSR 32 [0 0 0 0] ------- [0:255 18:255 32 0] 1 [1 1] [0 1 0 0->0] [0 0 0 0->0]
r 15.002488628 _3_ RTR  --- 1 DSR 32 [0 ffffffff 0 800] ------- [0:255 18:255 32 0] 1 [1 1] [0 1 0 0->0] [0 0 0 0->0]
r 15.002488962 _6_ RTR  --- 1 DSR 32 [0 ffffffff 0 800] ------- [0:255 18:255 32 0] 1 [1 1] [0 1 0 0->0] [0 0 0 0->0]
r 15.002488962 _1_ RTR  --- 1 DSR 32 [0 ffffffff 0 800] ------- [0:255 18:255 32 0] 1 [1 1] [0 1 0 0->0] [0 0 0 0->0]
r 15.002489041 _4_ RTR  --- 1 DSR 32 [0 ffffffff 0 800] ------- [0:255 18:255 32 0] 1 [1 1] [0 1 0 0->0] [0 0 0 0->0]
s 15.006908785 _7_ RTR  --- 5 DSR 32 [0 0 0 0] ------- [7:255 11:255 32 0] 1 [1 1] [0 1 0 0->0] [0 0 0 0->0]
r 15.008041118 _4_ RTR  --- 5 DSR 32 [0 ffffffff 7 800] ------- [7:255 11:255 32 0] 1 [1 1] [0 1 0 0->0] [0 0 0 0->0]
r 15.008041118 _10_ RTR  --- 5 DSR 32 [0 ffffffff 7 800] ------- [7:255 11:255 32 0] 1 [1 1] [0 1 0 0->0] [0 0 0 0->0]
r 15.008041451 _1_ RTR  --- 5 DSR 32 [0 ffffffff 7 800] ------- [7:255 11:255 32 0] 1 [1 1] [0 1 0 0->0] [0 0 0 0->0]
r 15.008041451 _6_ RTR  --- 5 DSR 32 [0 ffffffff 7 800] ------- [7:255 11:255 32 0] 1 [1 1] [0 1 0 0->0] [0 0 0 0->0]
r 15.008041451 _13_ RTR  --- 5 DSR 32 [0 ffffffff 7 800] ------- [7:255 11:255 32 0] 1 [1 1] [0 1 0 0->0] [0 0 0 0->0]
r 15.008041451 _8_ RTR  --- 5 DSR 32 [0 ffffffff 7 800] ------- [7:255 11:255 32 0] 1 [1 1] [0 1 0 0->0] [0 0 0 0->0]
r 15.008041530 _9_ RTR  --- 5 DSR 32 [0 ffffffff 7 800] ------- [7:255 11:255 32 0] 1 [1 1] [0 1 0 0->0] [0 0 0 0->0]
r 15.008041530 _3_ RTR  --- 5 DSR 32 [0 ffffffff 7 800] ------- [7:255 11:255 32 0] 1 [1 1] [0 1 0 0->0] [0 0 0 0->0]
r 15.008041530 _20_ RTR  --- 5 DSR 32 [0 ffffffff 7 800] ------- [7:255 11:255 32 0] 1 [1 1] [0 1 0 0->0] [0 0 0 0->0]
r 15.008041530 _5_ RTR  --- 5 DSR 32 [0 ffffffff 7 800] ------- [7:255 11:255 32 0] 1 [1 1] [0 1 0 0->0] [0 0 0 0->0]
r 15.008041530 _11_ RTR  --- 5 DSR 32 [0 ffffffff 7 800] ------- [7:255 11:255 32 0] 1 [1 1] [0 1 0 0->0] [0 0 0 0->0]
s 15.015983276 _11_ RTR  --- 7 DSR 44 [0 0 0 0] ------- [11:255 7:255 254 7] 2 [0 1] [1 1 2 7->11] [0 0 0 0->0]
r 15.017729512 _7_ RTR  --- 7 DSR 44 [13a 7 b 800] ------- [11:255 7:255 254 7] 2 [0 1] [1 1 2 7->11] [0 0 0 0->0]
SFESTs 15.017729512 _7_ 4 [7 -> 11] 1(1) to 11 [7 |11 ]
s 15.017729512 _7_ RTR  --- 4 cbr 548 [0 0 0 0] ------- [7:0 11:0 32 11] [0] 0 0
r 15.023811748 _11_ RTR  --- 4 cbr 548 [13a b 7 800] ------- [7:0 11:0 32 11] [0] 1 0
r 15.023811748 _11_ AGT  --- 4 cbr 512 [13a b 7 800] ------- [7:0 11:0 32 11] [0] 1 0
s 15.032686151 _3_ RTR  --- 8 DSR 32 [0 0 0 0] ------- [3:255 18:255 32 0] 1 [1 2] [0 2 0 0->16] [0 0 0 0->0]
r 15.033458484 _0_ RTR  --- 8 DSR 32 [0 ffffffff 3 800] ------- [3:255 18:255 32 0] 1 [1 2] [0 2 0 0->16] [0 0 0 0->0]
r 15.033458484 _6_ RTR  --- 8 DSR 32 [0 ffffffff 3 800] ------- [3:255 18:255 32 0] 1 [1 2] [0 2 0 0->16] [0 0 0 0->0]
r 15.033458817 _9_ RTR  --- 8 DSR 32 [0 ffffffff 3 800] ------- [3:255 18:255 32 0] 1 [1 2] [0 2 0 0->16] [0 0 0 0->0]
r 15.033458817 _4_ RTR  --- 8 DSR 32 [0 ffffffff 3 800] ------- [3:255 18:255 32 0] 1 [1 2] [0 2 0 0->16] [0 0 0 0->0]
r 15.033458896 _1_ RTR  --- 8 DSR 32 [0 ffffffff 3 800] ------- [3:255 18:255 32 0] 1 [1 2] [0 2 0 0->16] [0 0 0 0->0]
r 15.033458896 _7_ RTR  --- 8 DSR 32 [0 ffffffff 3 800] ------- [3:255 18:255 32 0] 1 [1 2] [0 2 0 0->16] [0 0 0 0->0]
f 15.036664669 _0_ RTR  --- 8 DSR 48 [0 ffffffff 3 800] ------- [3:255 18:255 32 0] 2 [1 2] [0 2 0 0->16] [0 0 0 0->0]
f 15.037152370 _9_ RTR  --- 8 DSR 48 [0 ffffffff 3 800] ------- [3:255 18:255 32 0] 2 [1 2] [0 2 0 0->16] [0 0 0 0->0]
f 15.037324273 _6_ RTR  --- 8 DSR 48 [0 ffffffff 3 800] ------- [3:255 18:255 32 0] 2 [1 2] [0 2 0 0->16] [0 0 0 0->0]
f 15.037340035 _1_ RTR  --- 8 DSR 48 [0 ffffffff 3 800] ------- [3:255 18:255 32 0] 2 [1 2] [0 2 0 0->16] [0 0 0 0->0]
f 15.037663230 _4_ RTR  --- 8 DSR 48 [0 ffffffff 3 800] ------- [3:255 18:255 32 0] 2 [1 2] [0 2 0 0->16] [0 0 0 0->0]
r 15.037825002 _3_ RTR  --- 8 DSR 48 [0 ffffffff 0 800] ------- [3:255 18:255 32 0] 2 [1 2] [0 2 0 0->16] [0 0 0 0->0]
r 15.037825336 _6_ RTR  --- 8 DSR 48 [0 ffffffff 0 800] ------- [3:255 18:255 32 0] 2 [1 2] [0 2 0 0->16] [0 0 0 0->0]
r 15.037825336 _1_ RTR  --- 8 DSR 48 [0 ffffffff 0 800] ------- [3:255 18:255 32 0] 2 [1 2] [0 2 0 0->16] [0 0 0 0->0]
r 15.037825414 _4_ RTR  --- 8 DSR 48 [0 ffffffff 0 800] ------- [3:255 18:255 32 0] 2 [1 2] [0 2 0 0->16] [0 0 0 0->0]
f 15.038313845 _7_ RTR  --- 8 DSR 48 [0 ffffffff 3 800] ------- [3:255 18:255 32 0] 2 [1 2] [0 2 0 0->16] [0 0 0 0->0]
r 15.038675669 _3_ RTR  --- 8 DSR 48 [0 ffffffff 6 800] ------- [3:255 18:255 32 0] 2 [1 2] [0 2 0 0->16] [0 0 0 0->0]
r 15.038675669 _9_ RTR  --- 8 DSR 48 [0 ffffffff 6 800] ------- [3:255 18:255 32 0] 2 [1 2] [0 2 0 0->16] [0 0 0 0->0]
r 15.038676002 _0_ RTR  --- 8 DSR 48 [0 ffffffff 6 800] ------- [3:255 18:255 32 0] 2 [1 2] [0 2 0 0->16] [0 0 0 0->0]
r 15.038676002 _12_ RTR  --- 8 DSR 48 [0 ffffffff 6 800] ------- [3:255 18:255 32 0] 2 [1 2] [0 2 0 0->16] [0 0 0 0->0]
r 15.038676002 _7_ RTR  --- 8 DSR 48 [0 ffffffff 6 800] ------- [3:255 18:255 32 0] 2 [1 2] [0 2 0 0->16] [0 0 0 0->0]
r 15.038676081 _4_ RTR  --- 8 DSR 48 [0 ffffffff 6 800] ------- [3:255 18:255 32 0] 2 [1 2] [0 2 0 0->16] [0 0 0 0->0]
r 15.038676081 _10_ RTR  --- 8 DSR 48 [0 ffffffff 6 800] ------- [3:255 18:255 32 0] 2 [1 2] [0 2 0 0->16] [0 0 0 0->0]
r 15.039606336 _4_ RTR  --- 8 DSR 48 [0 ffffffff 7 800] ------- [3:255 18:255 32 0] 2 [1 2] [0 2 0 0->16] [0 0 0 0->0]
r 15.039606336 _10_ RTR  --- 8 DSR 48 [0 ffffffff 7 800] ------- [3:255 18:255 32 0] 2 [1 2] [0 2 0 0->16] [0 0 0 0->0]
r 15.039606669 _1_ RTR  --- 8 DSR 48 [0 ffffffff 7 800] ------- [3:255 18:255 32 0] 2 [1 2] [0 2 0 0->16] [0 0 0 0->0]
r 15.039606669 _6_ RTR  --- 8 DSR 48 [0 ffffffff 7 800] ------- [3:255 18:255 32 0] 2 [1 2] [0 2 0 0->16] [0 0 0 0->0]
r 15.039606669 _13_ RTR  --- 8 DSR 48 [0 ffffffff 7 800] ------- [3:255 18:255 32 0] 2 [1 2] [0 2 0 0->16] [0 0 0 0->0]
r 15.039606669 _8_ RTR  --- 8 DSR 48 [0 ffffffff 7 800] ------- [3:255 18:255 32 0] 2 [1 2] [0 2 0 0->16] [0 0 0 0->0]
r 15.039606748 _9_ RTR  --- 8 DSR 48 [0 ffffffff 7 800] ------- [3:255 18:255 32 0] 2 [1 2] [0 2 0 0->16] [0 0 0 0->0]
r 15.039606748 _3_ RTR  --- 8 DSR 48 [0 ffffffff 7 800] ------- [3:255 18:255 32 0] 2 [1 2] [0 2 0 0->16] [0 0 0 0->0]
r 15.039606748 _20_ RTR  --- 8 DSR 48 [0 ffffffff 7 800] ------- [3:255 18:255 32 0] 2 [1 2] [0 2 0 0->16] [0 0 0 0->0]
r 15.039606748 _5_ RTR  --- 8 DSR 48 [0 ffffffff 7 800] ------- [3:255 18:255 32 0] 2 [1 2] [0 2 0 0->16] [0 0 0 0->0]
r 15.039606748 _11_ RTR  --- 8 DSR 48 [0 ffffffff 7 800] ------- [3:255 18:255 32 0] 2 [1 2] [0 2 0 0->16] [0 0 0 0->0]
r 15.040477081 _6_ RTR  --- 8 DSR 48 [0 ffffffff 9 800] ------- [3:255 18:255 32 0] 2 [1 2] [0 2 0 0->16] [0 0 0 0->0]
r 15.040477081 _12_ RTR  --- 8 DSR 48 [0 ffffffff 9 800] ------- [3:255 18:255 32 0] 2 [1 2] [0 2 0 0->16] [0 0 0 0->0]
r 15.040477414 _3_ RTR  --- 8 DSR 48 [0 ffffffff 9 800] ------- [3:255 18:255 32 0] 2 [1 2] [0 2 0 0->16] [0 0 0 0->0]
r 15.040477414 _15_ RTR  --- 8 DSR 48 [0 ffffffff 9 800] ------- [3:255 18:255 32 0] 2 [1 2] [0 2 0 0->16] [0 0 0 0->0]
r 15.040477414 _10_ RTR  --- 8 DSR 48 [0 ffffffff 9 800] ------- [3:255 18:255 32 0] 2 [1 2] [0 2 0 0->16] [0 0 0 0->0]
r 15.040477493 _19_ RTR  --- 8 DSR 48 [0 ffffffff 9 800] ------- [3:255 18:255 32 0] 2 [1 2] [0 2 0 0->16] [0 0 0 0->0]
r 15.040477493 _7_ RTR  --- 8 DSR 48 [0 ffffffff 9 800] ------- [3:255 18:255 32 0] 2 [1 2] [0 2 0 0->16] [0 0 0 0->0]
r 15.040477493 _13_ RTR  --- 8 DSR 48 [0 ffffffff 9 800] ------- [3:255 18:255 32 0] 2 [1 2] [0 2 0 0->16] [0 0 0 0->0]
r 15.041792283 _4_ RTR  --- 8 DSR 48 [0 ffffffff 1 800] ------- [3:255 18:255 32 0] 2 [1 2] [0 2 0 0->16] [0 0 0 0->0]
r 15.041792616 _0_ RTR  --- 8 DSR 48 [0 ffffffff 1 800] ------- [3:255 18:255 32 0] 2 [1 2] [0 2 0 0->16] [0 0 0 0->0]
r 15.041792616 _7_ RTR  --- 8 DSR 48 [0 ffffffff 1 800] ------- [3:255 18:255 32 0] 2 [1 2] [0 2 0 0->16] [0 0 0 0->0]
r 15.041792616 _2_ RTR  --- 8 DSR 48 [0 ffffffff 1 800] ------- [3:255 18:255 32 0] 2 [1 2] [0 2 0 0->16] [0 0 0 0->0]
r 15.041792695 _3_ RTR  --- 8 DSR 48 [0 ffffffff 1 800] ------- [3:255 18:255 32 0] 2 [1 2] [0 2 0 0->16] [0 0 0 0->0]
r 15.041792695 _5_ RTR  --- 8 DSR 48 [0 ffffffff 1 800] ------- [3:255 18:255 32 0] 2 [1 2] [0 2 0 0->16] [0 0 0 0->0]
r 15.042962616 _1_ RTR  --- 8 DSR 48 [0 ffffffff 4 800] ------- [3:255 18:255 32 0] 2 [1 2] [0 2 0 0->16] [0 0 0 0->0]
r 15.042962616 _7_ RTR  --- 8 DSR 48 [0 ffffffff 4 800] ------- [3:255 18:255 32 0] 2 [1 2] [0 2 0 0->16] [0 0 0 0->0]
r 15.042962950 _3_ RTR  --- 8 DSR 48 [0 ffffffff 4 800] ------- [3:255 18:255 32 0] 2 [1 2] [0 2 0 0->16] [0 0 0 0->0]
r 15.042962950 _10_ RTR  --- 8 DSR 48 [0 ffffffff 4 800] ------- [3:255 18:255 32 0] 2 [1 2] [0 2 0 0->16] [0 0 0 0->0]
r 15.042962950 _5_ RTR  --- 8 DSR 48 [0 ffffffff 4 800] ------- [3:255 18:255 32 0] 2 [1 2] [0 2 0 0->16] [0 0 0 0->0]
r 15.042963028 _6_ RTR  --- 8 DSR 48 [0 ffffffff 4 800] ------- [3:255 18:255 32 0] 2 [1 2] [0 2 0 0->16] [0 0 0 0->0]
r 15.042963028 _0_ RTR  --- 8 DSR 48 [0 ffffffff 4 800] ------- [3:255 18:255 32 0] 2 [1 2] [0 2 0 0->16] [0 0 0 0->0]
r 15.042963028 _2_ RTR  --- 8 DSR 48 [0 ffffffff 4 800] ------- [3:255 18:255 32 0] 2 [1 2] [0 2 0 0->16] [0 0 0 0->0]
r 15.042963028 _8_ RTR  --- 8 DSR 48 [0 ffffffff 4 800] ------- [3:255 18:255 32 0] 2 [1 2] [0 2 0 0->16] [0 0 0 0->0]
f 15.043112016 _13_ RTR  --- 8 DSR 68 [0 ffffffff 7 800] ------- [3:255 18:255 32 0] 3 [1 2] [0 2 0 0->16] [0 0 0 0->0]
f 15.043168845 _8_ RTR  --- 8 DSR 68 [0 ffffffff 7 800] ------- [3:255 18:255 32 0] 3 [1 2] [0 2 0 0->16] [0 0 0 0->0]
f 15.043372875 _20_ RTR  --- 8 DSR 68 [0 ffffffff 7 800] ------- [3:255 18:255 32 0] 3 [1 2] [0 2 0 0->16] [0 0 0 0->0]
s 15.043479951 _0_ RTR  --- 9 DSR 32 [0 0 0 0] ------- [0:255 18:255 32 0] 1 [1 2] [0 2 0 0->16] [0 0 0 0->0]
r 15.044249179 _5_ RTR  --- 8 DSR 68 [0 ffffffff 8 800] ------- [3:255 18:255 32 0] 3 [1 2] [0 2 0 0->16] [0 0 0 0->0]
r 15.044249179 _11_ RTR  --- 8 DSR 68 [0 ffffffff 8 800] ------- [3:255 18:255 32 0] 3 [1 2] [0 2 0 0->16] [0 0 0 0->0]
r 15.044249512 _2_ RTR  --- 8 DSR 68 [0 ffffffff 8 800] ------- [3:255 18:255 32 0] 3 [1 2] [0 2 0 0->16] [0 0 0 0->0]
r 15.044249512 _7_ RTR  --- 8 DSR 68 [0 ffffffff 8 800] ------- [3:255 18:255 32 0] 3 [1 2] [0 2 0 0->16] [0 0 0 0->0]
r 15.044249512 _14_ RTR  --- 8 DSR 68 [0 ffffffff 8 800] ------- [3:255 18:255 32 0] 3 [1 2] [0 2 0 0->16] [0 0 0 0->0]
r 15.044249591 _20_ RTR  --- 8 DSR 68 [0 ffffffff 8 800] ------- [3:255 18:255 32 0] 3 [1 2] [0 2 0 0->16] [0 0 0 0->0]
r 15.044249591 _10_ RTR  --- 8 DSR 68 [0 ffffffff 8 800] ------- [3:255 18:255 32 0] 3 [1 2] [0 2 0 0->16] [0 0 0 0->0]
r 15.044249591 _4_ RTR  --- 8 DSR 68 [0 ffffffff 8 800] ------- [3:255 18:255 32 0] 3 [1 2] [0 2 0 0->16] [0 0 0 0->0]
f 15.044339278 _10_ RTR  --- 8 DSR 68 [0 ffffffff 6 800] ------- [3:255 18:255 32 0] 3 [1 2] [0 2 0 0->16] [0 0 0 0->0]
f 15.045139461 _2_ RTR  --- 8 DSR 68 [0 ffffffff 1 800] ------- [3:255 18:255 32 0] 3 [1 2] [0 2 0 0->16] [0 0 0 0->0]
r 15.045399924 _18_ RTR  --- 8 DSR 68 [0 ffffffff 14 800] ------- [3:255 18:255 32 0] 3 [1 2] [0 2 0 0->16] [0 0 0 0->0]
r 15.045399924 _13_ RTR  --- 8 DSR 68 [0 ffffffff 14 800] ------- [3:255 18:255 32 0] 3 [1 2] [0 2 0 0->16] [0 0 0 0->0]
r 15.045399924 _14_ RTR  --- 8 DSR 68 [0 ffffffff 14 800] ------- [3:255 18:255 32 0] 3 [1 2] [0 2 0 0->16] [0 0 0 0->0]
r 15.045400062 _16_ RTR  --- 8 DSR 68 [0 ffffffff 14 800] ------- [3:255 18:255 32 0] 3 [1 2] [0 2 0 0->16] [0 0 0 0->0]
r 15.045400062 _10_ RTR  --- 8 DSR 68 [0 ffffffff 14 800] ------- [3:255 18:255 32 0] 3 [1 2] [0 2 0 0->16] [0 0 0 0->0]
r 15.045400062 _11_ RTR  --- 8 DSR 68 [0 ffffffff 14 800] ------- [3:255 18:255 32 0] 3 [1 2] [0 2 0 0->16] [0 0 0 0->0]
r 15.045400062 _17_ RTR  --- 8 DSR 68 [0 ffffffff 14 800] ------- [3:255 18:255 32 0] 3 [1 2] [0 2 0 0->16] [0 0 0 0->0]
r 15.045400336 _7_ RTR  --- 8 DSR 68 [0 ffffffff 14 800] ------- [3:255 18:255 32 0] 3 [1 2] [0 2 0 0->16] [0 0 0 0->0]
r 15.045400336 _19_ RTR  --- 8 DSR 68 [0 ffffffff 14 800] ------- [3:255 18:255 32 0] 3 [1 2] [0 2 0 0->16] [0 0 0 0->0]
r 15.045400336 _8_ RTR  --- 8 DSR 68 [0 ffffffff 14 800] ------- [3:255 18:255 32 0] 3 [1 2] [0 2 0 0->16] [0 0 0 0->0]
f 15.046203189 _14_ RTR  --- 8 DSR 92 [0 ffffffff 8 800] ------- [3:255 18:255 32 0] 4 [1 2] [0 2 0 0->16] [0 0 0 0->0]
r 15.046730396 _7_ RTR  --- 8 DSR 68 [0 ffffffff a 800] ------- [3:255 18:255 32 0] 3 [1 2] [0 2 0 0->16] [0 0 0 0->0]
r 15.046730396 _13_ RTR  --- 8 DSR 68 [0 ffffffff a 800] ------- [3:255 18:255 32 0] 3 [1 2] [0 2 0 0->16] [0 0 0 0->0]
r 15.046730534 _20_ RTR  --- 8 DSR 68 [0 ffffffff a 800] ------- [3:255 18:255 32 0] 3 [1 2] [0 2 0 0->16] [0 0 0 0->0]
r 15.046730729 _4_ RTR  --- 8 DSR 68 [0 ffffffff a 800] ------- [3:255 18:255 32 0] 3 [1 2] [0 2 0 0->16] [0 0 0 0->0]
r 15.046730729 _9_ RTR  --- 8 DSR 68 [0 ffffffff a 800] ------- [3:255 18:255 32 0] 3 [1 2] [0 2 0 0->16] [0 0 0 0->0]
r 15.046730729 _16_ RTR  --- 8 DSR 68 [0 ffffffff a 800] ------- [3:255 18:255 32 0] 3 [1 2] [0 2 0 0->16] [0 0 0 0->0]
r 15.046730729 _11_ RTR  --- 8 DSR 68 [0 ffffffff a 800] ------- [3:255 18:255 32 0] 3 [1 2] [0 2 0 0->16] [0 0 0 0->0]
r 15.046730808 _19_ RTR  --- 8 DSR 68 [0 ffffffff a 800] ------- [3:255 18:255 32 0] 3 [1 2] [0 2 0 0->16] [0 0 0 0->0]
r 15.046730808 _12_ RTR  --- 8 DSR 68 [0 ffffffff a 800] ------- [3:255 18:255 32 0] 3 [1 2] [0 2 0 0->16] [0 0 0 0->0]
r 15.046730808 _6_ RTR  --- 8 DSR 68 [0 ffffffff a 800] ------- [3:255 18:255 32 0] 3 [1 2] [0 2 0 0->16] [0 0 0 0->0]
r 15.046730808 _18_ RTR  --- 8 DSR 68 [0 ffffffff a 800] ------- [3:255 18:255 32 0] 3 [1 2] [0 2 0 0->16] [0 0 0 0->0]
r 15.046730808 _8_ RTR  --- 8 DSR 68 [0 ffffffff a 800] ------- [3:255 18:255 32 0] 3 [1 2] [0 2 0 0->16] [0 0 0 0->0]
r 15.046730808 _14_ RTR  --- 8 DSR 68 [0 ffffffff a 800] ------- [3:255 18:255 32 0] 3 [1 2] [0 2 0 0->16] [0 0 0 0->0]
f 15.047588471 _11_ RTR  --- 8 DSR 68 [0 ffffffff 7 800] ------- [3:255 18:255 32 0] 3 [1 2] [0 2 0 0->16] [0 0 0 0->0]
f 15.047697539 _5_ RTR  --- 8 DSR 68 [0 ffffffff 7 800] ------- [3:255 18:255 32 0] 3 [1 2] [0 2 0 0->16] [0 0 0 0->0]
f 15.047775927 _12_ RTR  --- 8 DSR 68 [0 ffffffff 6 800] ------- [3:255 18:255 32 0] 3 [1 2] [0 2 0 0->16] [0 0 0 0->0]
r 15.047920729 _10_ RTR  --- 8 DSR 68 [0 ffffffff d 800] ------- [3:255 18:255 32 0] 3 [1 2] [0 2 0 0->16] [0 0 0 0->0]
r 15.047920729 _16_ RTR  --- 8 DSR 68 [0 ffffffff d 800] ------- [3:255 18:255 32 0] 3 [1 2] [0 2 0 0->16] [0 0 0 0->0]
r 15.047920729 _20_ RTR  --- 8 DSR 68 [0 ffffffff d 800] ------- [3:255 18:255 32 0] 3 [1 2] [0 2 0 0->16] [0 0 0 0->0]
r 15.047920867 _19_ RTR  --- 8 DSR 68 [0 ffffffff d 800] ------- [3:255 18:255 32 0] 3 [1 2] [0 2 0 0->16] [0 0 0 0->0]
r 15.047920867 _18_ RTR  --- 8 DSR 68 [0 ffffffff d 800] ------- [3:255 18:255 32 0] 3 [1 2] [0 2 0 0->16] [0 0 0 0->0]
r 15.047921062 _7_ RTR  --- 8 DSR 68 [0 ffffffff d 800] ------- [3:255 18:255 32 0] 3 [1 2] [0 2 0 0->16] [0 0 0 0->0]
r 15.047921062 _12_ RTR  --- 8 DSR 68 [0 ffffffff d 800] ------- [3:255 18:255 32 0] 3 [1 2] [0 2 0 0->16] [0 0 0 0->0]
r 15.047921062 _14_ RTR  --- 8 DSR 68 [0 ffffffff d 800] ------- [3:255 18:255 32 0] 3 [1 2] [0 2 0 0->16] [0 0 0 0->0]
r 15.047921141 _15_ RTR  --- 8 DSR 68 [0 ffffffff d 800] ------- [3:255 18:255 32 0] 3 [1 2] [0 2 0 0->16] [0 0 0 0->0]
r 15.047921141 _9_ RTR  --- 8 DSR 68 [0 ffffffff d 800] ------- [3:255 18:255 32 0] 3 [1 2] [0 2 0 0->16] [0 0 0 0->0]
r 15.047921141 _11_ RTR  --- 8 DSR 68 [0 ffffffff d 800] ------- [3:255 18:255 32 0] 3 [1 2] [0 2 0 0->16] [0 0 0 0->0]
r 15.047921141 _17_ RTR  --- 8 DSR 68 [0 ffffffff d 800] ------- [3:255 18:255 32 0] 3 [1 2] [0 2 0 0->16] [0 0 0 0->0]
r 15.049071474 _8_ RTR  --- 8 DSR 68 [0 ffffffff b 800] ------- [3:255 18:255 32 0] 3 [1 2] [0 2 0 0->16] [0 0 0 0->0]
r 15.049071474 _14_ RTR  --- 8 DSR 68 [0 ffffffff b 800] ------- [3:255 18:255 32 0] 3 [1 2] [0 2 0 0->16] [0 0 0 0->0]
r 15.049071612 _20_ RTR  --- 8 DSR 68 [0 ffffffff b 800] ------- [3:255 18:255 32 0] 3 [1 2] [0 2 0 0->16] [0 0 0 0->0]
r 15.049071808 _5_ RTR  --- 8 DSR 68 [0 ffffffff b 800] ------- [3:255 18:255 32 0] 3 [1 2] [0 2 0 0->16] [0 0 0 0->0]
r 15.049071808 _10_ RTR  --- 8 DSR 68 [0 ffffffff b 800] ------- [3:255 18:255 32 0] 3 [1 2] [0 2 0 0->16] [0 0 0 0->0]
r 15.049071808 _17_ RTR  --- 8 DSR 68 [0 ffffffff b 800] ------- [3:255 18:255 32 0] 3 [1 2] [0 2 0 0->16] [0 0 0 0->0]
r 15.049071886 _18_ RTR  --- 8 DSR 68 [0 ffffffff b 800] ------- [3:255 18:255 32 0] 3 [1 2] [0 2 0 0->16] [0 0 0 0->0]
r 15.049071886 _13_ RTR  --- 8 DSR 68 [0 ffffffff b 800] ------- [3:255 18:255 32 0] 3 [1 2] [0 2 0 0->16] [0 0 0 0->0]
r 15.049071886 _7_ RTR  --- 8 DSR 68 [0 ffffffff b 800] ------- [3:255 18:255 32 0] 3 [1 2] [0 2 0 0->16] [0 0 0 0->0]
f 15.049289783 _19_ RTR  --- 8 DSR 68 [0 ffffffff 9 800] ------- [3:255 18:255 32 0] 3 [1 2] [0 2 0 0->16] [0 0 0 0->0]
f 15.049481030 _15_ RTR  --- 8 DSR 68 [0 ffffffff 9 800] ------- [3:255 18:255 32 0] 3 [1 2] [0 2 0 0->16] [0 0 0 0->0]
r 15.050353808 _11_ RTR  --- 8 DSR 92 [0 ffffffff e 800] ------- [3:255 18:255 32 0] 4 [1 2] [0 2 0 0->16] [0 0 0 0->0]
r 15.050353808 _20_ RTR  --- 8 DSR 92 [0 ffffffff e 800] ------- [3:255 18:255 32 0] 4 [1 2] [0 2 0 0->16] [0 0 0 0->0]
r 15.050353808 _17_ RTR  --- 8 DSR 92 [0 ffffffff e 800] ------- [3:255 18:255 32 0] 4 [1 2] [0 2 0 0->16] [0 0 0 0->0]
r 15.050353946 _18_ RTR  --- 8 DSR 92 [0 ffffffff e 800] ------- [3:255 18:255 32 0] 4 [1 2] [0 2 0 0->16] [0 0 0 0->0]
r 15.050354141 _8_ RTR  --- 8 DSR 92 [0 ffffffff e 800] ------- [3:255 18:255 32 0] 4 [1 2] [0 2 0 0->16] [0 0 0 0->0]
r 15.050354141 _13_ RTR  --- 8 DSR 92 [0 ffffffff e 800] ------- [3:255 18:255 32 0] 4 [1 2] [0 2 0 0->16] [0 0 0 0->0]
r 15.050354220 _16_ RTR  --- 8 DSR 92 [0 ffffffff e 800] ------- [3:255 18:255 32 0] 4 [1 2] [0 2 0 0->16] [0 0 0 0->0]
f 15.051716890 _17_ RTR  --- 8 DSR 92 [0 ffffffff 14 800] ------- [3:255 18:255 32 0] 4 [1 2] [0 2 0 0->16] [0 0 0 0->0]
s 15.052069172 _18_ RTR  --- 12 DSR 60 [0 0 0 0] ------- [18:255 3:255 254 13] 4 [0 2] [1 2 4 3->18] [0 0 0 0->0]
r 15.052134841 _15_ RTR  --- 8 DSR 68 [0 ffffffff 13 800] ------- [3:255 18:255 32 0] 3 [1 2] [0 2 0 0->16] [0 0 0 0->0]
r 15.052134841 _16_ RTR  --- 8 DSR 68 [0 ffffffff 13 800] ------- [3:255 18:255 32 0] 3 [1 2] [0 2 0 0->16] [0 0 0 0->0]
r 15.052134979 _12_ RTR  --- 8 DSR 68 [0 ffffffff 13 800] ------- [3:255 18:255 32 0] 3 [1 2] [0 2 0 0->16] [0 0 0 0->0]
r 15.052134979 _13_ RTR  --- 8 DSR 68 [0 ffffffff 13 800] ------- [3:255 18:255 32 0] 3 [1 2] [0 2 0 0->16] [0 0 0 0->0]
r 15.052135174 _18_ RTR  --- 8 DSR 68 [0 ffffffff 13 800] ------- [3:255 18:255 32 0] 3 [1 2] [0 2 0 0->16] [0 0 0 0->0]
r 15.052135253 _9_ RTR  --- 8 DSR 68 [0 ffffffff 13 800] ------- [3:255 18:255 32 0] 3 [1 2] [0 2 0 0->16] [0 0 0 0->0]
r 15.052135253 _20_ RTR  --- 8 DSR 68 [0 ffffffff 13 800] ------- [3:255 18:255 32 0] 3 [1 2] [0 2 0 0->16] [0 0 0 0->0]
f 15.052201387 _16_ RTR  --- 8 DSR 92 [0 ffffffff 14 800] ------- [3:255 18:255 32 0] 4 [1 2] [0 2 0 0->16] [0 0 0 0->0]
s 15.052511958 _18_ RTR  --- 13 DSR 60 [0 0 0 0] ------- [18:255 3:255 254 11] 4 [0 2] [1 2 4 3->18] [0 0 0 0->0]
s 15.053065226 _18_ RTR  --- 10 DSR 60 [0 0 0 0] ------- [18:255 3:255 254 20] 4 [0 2] [1 2 4 3->18] [0 0 0 0->0]
r 15.053165174 _12_ RTR  --- 8 DSR 68 [0 ffffffff f 800] ------- [3:255 18:255 32 0] 3 [1 2] [0 2 0 0->16] [0 0 0 0->0]
r 15.053165174 _19_ RTR  --- 8 DSR 68 [0 ffffffff f 800] ------- [3:255 18:255 32 0] 3 [1 2] [0 2 0 0->16] [0 0 0 0->0]
r 15.053165507 _9_ RTR  --- 8 DSR 68 [0 ffffffff f 800] ------- [3:255 18:255 32 0] 3 [1 2] [0 2 0 0->16] [0 0 0 0->0]
r 15.053165507 _16_ RTR  --- 8 DSR 68 [0 ffffffff f 800] ------- [3:255 18:255 32 0] 3 [1 2] [0 2 0 0->16] [0 0 0 0->0]
r 15.053568808 _2_ RTR  --- 8 DSR 68 [0 ffffffff 5 800] ------- [3:255 18:255 32 0] 3 [1 2] [0 2 0 0->16] [0 0 0 0->0]
s 15.054303875 _18_ RTR  --- 11 DSR 60 [0 0 0 0] ------- [18:255 3:255 254 10] 4 [0 2] [1 2 4 3->18] [0 0 0 0->0]
r 15.055004474 _9_ RTR  --- 8 DSR 68 [0 ffffffff c 800] ------- [3:255 18:255 32 0] 3 [1 2] [0 2 0 0->16] [0 0 0 0->0]
r 15.055004474 _15_ RTR  --- 8 DSR 68 [0 ffffffff c 800] ------- [3:255 18:255 32 0] 3 [1 2] [0 2 0 0->16] [0 0 0 0->0]
r 15.055004612 _19_ RTR  --- 8 DSR 68 [0 ffffffff c 800] ------- [3:255 18:255 32 0] 3 [1 2] [0 2 0 0->16] [0 0 0 0->0]
r 15.055004808 _6_ RTR  --- 8 DSR 68 [0 ffffffff c 800] ------- [3:255 18:255 32 0] 3 [1 2] [0 2 0 0->16] [0 0 0 0->0]
r 15.055004808 _13_ RTR  --- 8 DSR 68 [0 ffffffff c 800] ------- [3:255 18:255 32 0] 3 [1 2] [0 2 0 0->16] [0 0 0 0->0]
r 15.055004886 _10_ RTR  --- 8 DSR 68 [0 ffffffff c 800] ------- [3:255 18:255 32 0] 3 [1 2] [0 2 0 0->16] [0 0 0 0->0]
r 15.055004886 _16_ RTR  --- 8 DSR 68 [0 ffffffff c 800] ------- [3:255 18:255 32 0] 3 [1 2] [0 2 0 0->16] [0 0 0 0->0]
s 15.055991646 _18_ RTR  --- 14 DSR 68 [0 0 0 0] ------- [18:255 3:255 254 14] 5 [0 2] [1 2 5 3->18] [0 0 0 0->0]
r 15.056427220 _13_ RTR  --- 8 DSR 92 [0 ffffffff 10 800] ------- [3:255 18:255 32 0] 4 [1 2] [0 2 0 0->16] [0 0 0 0->0]
r 15.056427220 _19_ RTR  --- 8 DSR 92 [0 ffffffff 10 800] ------- [3:255 18:255 32 0] 4 [1 2] [0 2 0 0->16] [0 0 0 0->0]
r 15.056427220 _18_ RTR  --- 8 DSR 92 [0 ffffffff 10 800] ------- [3:255 18:255 32 0] 4 [1 2] [0 2 0 0->16] [0 0 0 0->0]
r 15.056427358 _20_ RTR  --- 8 DSR 92 [0 ffffffff 10 800] ------- [3:255 18:255 32 0] 4 [1 2] [0 2 0 0->16] [0 0 0 0->0]
r 15.056427553 _10_ RTR  --- 8 DSR 92 [0 ffffffff 10 800] ------- [3:255 18:255 32 0] 4 [1 2] [0 2 0 0->16] [0 0 0 0->0]
r 15.056427553 _15_ RTR  --- 8 DSR 92 [0 ffffffff 10 800] ------- [3:255 18:255 32 0] 4 [1 2] [0 2 0 0->16] [0 0 0 0->0]
r 15.056427553 _17_ RTR  --- 8 DSR 92 [0 ffffffff 10 800] ------- [3:255 18:255 32 0] 4 [1 2] [0 2 0 0->16] [0 0 0 0->0]
r 15.056427632 _12_ RTR  --- 8 DSR 92 [0 ffffffff 10 800] ------- [3:255 18:255 32 0] 4 [1 2] [0 2 0 0->16] [0 0 0 0->0]
r 15.056427632 _14_ RTR  --- 8 DSR 92 [0 ffffffff 10 800] ------- [3:255 18:255 32 0] 4 [1 2] [0 2 0 0->16] [0 0 0 0->0]
r 15.057649886 _14_ RTR  --- 8 DSR 92 [0 ffffffff 11 800] ------- [3:255 18:255 32 0] 4 [1 2] [0 2 0 0->16] [0 0 0 0->0]
r 15.057649886 _18_ RTR  --- 8 DSR 92 [0 ffffffff 11 800] ------- [3:255 18:255 32 0] 4 [1 2] [0 2 0 0->16] [0 0 0 0->0]
r 15.057650024 _20_ RTR  --- 8 DSR 92 [0 ffffffff 11 800] ------- [3:255 18:255 32 0] 4 [1 2] [0 2 0 0->16] [0 0 0 0->0]
r 15.057650220 _11_ RTR  --- 8 DSR 92 [0 ffffffff 11 800] ------- [3:255 18:255 32 0] 4 [1 2] [0 2 0 0->16] [0 0 0 0->0]
r 15.057650220 _16_ RTR  --- 8 DSR 92 [0 ffffffff 11 800] ------- [3:255 18:255 32 0] 4 [1 2] [0 2 0 0->16] [0 0 0 0->0]
r 15.057650298 _13_ RTR  --- 8 DSR 92 [0 ffffffff 11 800] ------- [3:255 18:255 32 0] 4 [1 2] [0 2 0 0->16] [0 0 0 0->0]
r 15.059433301 _13_ RTR  --- 12 DSR 60 [13a d 12 800] ------- [18:255 3:255 254 13] 4 [0 2] [1 2 4 3->18] [0 0 0 0->0]
f 15.059433301 _13_ RTR  --- 12 DSR 60 [13a d 12 800] ------- [18:255 3:255 253 7] 4 [0 2] [1 2 4 3->18] [0 0 0 0->0]
s 15.061321225 _18_ RTR  --- 15 DSR 60 [0 0 0 0] ------- [18:255 3:255 254 19] 4 [0 2] [1 2 4 3->18] [0 0 0 0->0]
r 15.061955186 _14_ RTR  --- 14 DSR 68 [13a e 12 800] ------- [18:255 3:255 254 14] 5 [0 2] [1 2 5 3->18] [0 0 0 0->0]
f 15.061955186 _14_ RTR  --- 14 DSR 68 [13a e 12 800] ------- [18:255 3:255 253 8] 5 [0 2] [1 2 5 3->18] [0 0 0 0->0]
s 15.062123763 _18_ RTR  --- 16 DSR 68 [0 0 0 0] ------- [18:255 3:255 254 16] 5 [0 2] [1 2 5 3->18] [0 0 0 0->0]
s 15.063822578 _18_ RTR  --- 17 DSR 68 [0 0 0 0] ------- [18:255 3:255 254 17] 5 [0 2] [1 2 5 3->18] [0 0 0 0->0]
r 15.063913853 _7_ RTR  --- 12 DSR 60 [13a 7 d 800] ------- [18:255 3:255 253 7] 4 [0 2] [1 2 4 3->18] [0 0 0 0->0]
f 15.063913853 _7_ RTR  --- 12 DSR 60 [13a 7 d 800] ------- [18:255 3:255 252 3] 4 [0 2] [1 2 4 3->18] [0 0 0 0->0]
r 15.066132089 _3_ RTR  --- 12 DSR 60 [13a 3 7 800] ------- [18:255 3:255 252 3] 4 [0 2] [1 2 4 3->18] [0 0 0 0->0]
SFESTs 15.066132089 _3_ 2 [3 -> 18] 1(1) to 7 [3 |7 13 18 ]
s 15.066132089 _3_ RTR  --- 2 cbr 556 [0 0 0 0] ------- [3:0 18:1 32 7] [0] 0 0
r 15.072458325 _7_ RTR  --- 2 cbr 556 [13a 7 3 800] ------- [3:0 18:1 32 7] [0] 1 0
f 15.072458325 _7_ RTR  --- 2 cbr 556 [13a 7 3 800] ------- [3:0 18:1 31 13] [0] 1 0
s 15.077812255 _7_ AGT  --- 18 cbr 512 [0 0 0 0] ------- [7:0 11:0 32 0] [1] 0 0
r 15.077812255 _7_ RTR  --- 18 cbr 512 [0 0 0 0] ------- [7:0 11:0 32 0] [1] 0 0
SFESTs 15.077812255 _7_ 18 [7 -> 11] 1(1) to 11 [7 |11 ]
s 15.077812255 _7_ RTR  --- 18 cbr 548 [0 0 0 0] ------- [7:0 11:0 32 11] [1] 0 0
r 15.078544325 _13_ RTR  --- 2 cbr 556 [13a d 7 800] ------- [3:0 18:1 31 13] [0] 2 0
f 15.078544325 _13_ RTR  --- 2 cbr 556 [13a d 7 800] ------- [3:0 18:1 30 18] [0] 2 0
r 15.084589739 _18_ RTR  --- 2 cbr 556 [13a 12 d 800] ------- [3:0 18:1 30 18] [0] 3 0
r 15.084589739 _18_ AGT  --- 2 cbr 512 [13a 12 d 800] ------- [3:0 18:1 30 18] [0] 3 0
SFESTs 15.086308703 _0_ 0 [0 -> 18] 1(1) to 3 [0 |3 7 13 18 ]
s 15.086308703 _0_ RTR  --- 0 cbr 560 [0 0 0 0] ------- [0:0 18:0 32 3] [0] 0 0
r 15.086772211 _8_ RTR  --- 14 DSR 68 [13a 8 e 800] ------- [18:255 3:255 253 8] 5 [0 2] [1 2 5 3->18] [0 0 0 0->0]
f 15.086772211 _8_ RTR  --- 14 DSR 68 [13a 8 e 800] ------- [18:255 3:255 252 7] 5 [0 2] [1 2 5 3->18] [0 0 0 0->0]
r 15.089318265 _16_ RTR  --- 16 DSR 68 [13a 10 12 800] ------- [18:255 3:255 254 16] 5 [0 2] [1 2 5 3->18] [0 0 0 0->0]
f 15.089318265 _16_ RTR  --- 16 DSR 68 [13a 10 12 800] ------- [18:255 3:255 253 20] 5 [0 2] [1 2 5 3->18] [0 0 0 0->0]
r 15.091499598 _17_ RTR  --- 17 DSR 68 [13a 11 12 800] ------- [18:255 3:255 254 17] 5 [0 2] [1 2 5 3->18] [0 0 0 0->0]
f 15.091499598 _17_ RTR  --- 17 DSR 68 [13a 11 12 800] ------- [18:255 3:255 253 20] 5 [0 2] [1 2 5 3->18] [0 0 0 0->0]
r 15.093617931 _19_ RTR  --- 15 DSR 60 [13a 13 12 800] ------- [18:255 3:255 254 19] 4 [0 2] [1 2 4 3->18] [0 0 0 0->0]
f 15.093617931 _19_ RTR  --- 15 DSR 60 [13a 13 12 800] ------- [18:255 3:255 253 9] 4 [0 2] [1 2 4 3->18] [0 0 0 0->0]
r 15.096031507 _20_ RTR  --- 16 DSR 68 [13a 14 10 800] ------- [18:255 3:255 253 20] 5 [0 2] [1 2 5 3->18] [0 0 0 0->0]
f 15.096031507 _20_ RTR  --- 16 DSR 68 [13a 14 10 800] ------- [18:255 3:255 252 7] 5 [0 2] [1 2 5 3->18] [0 0 0 0->0]
r 15.098093393 _20_ RTR  --- 17 DSR 68 [13a 14 11 800] ------- [18:255 3:255 253 20] 5 [0 2] [1 2 5 3->18] [0 0 0 0->0]
f 15.098093393 _20_ RTR  --- 17 DSR 68 [13a 14 11 800] ------- [18:255 3:255 252 7] 5 [0 2] [1 2 5 3->18] [0 0 0 0->0]
s 15.099261759 _0_ AGT  --- 19 cbr 512 [0 0 0 0] ------- [0:0 18:0 32 0] [1] 0 0
r 15.099261759 _0_ RTR  --- 19 cbr 512 [0 0 0 0] ------- [0:0 18:0 32 0] [1] 0 0
SFESTs 15.099261759 _0_ 19 [0 -> 18] 1(1) to 3 [0 |3 7 13 18 ]
s 15.099261759 _0_ RTR  --- 19 cbr 560 [0 0 0 0] ------- [0:0 18:0 32 3] [1] 0 0
r 15.100131962 _10_ RTR  --- 11 DSR 60 [13a a 12 800] ------- [18:255 3:255 254 10] 4 [0 2] [1 2 4 3->18] [0 0 0 0->0]
f 15.100131962 _10_ RTR  --- 11 DSR 60 [13a a 12 800] ------- [18:255 3:255 253 6] 4 [0 2] [1 2 4 3->18] [0 0 0 0->0]
r 15.102149707 _20_ RTR  --- 10 DSR 60 [13a 14 12 800] ------- [18:255 3:255 254 20] 4 [0 2] [1 2 4 3->18] [0 0 0 0->0]
f 15.102149707 _20_ RTR  --- 10 DSR 60 [13a 14 12 800] ------- [18:255 3:255 253 7] 4 [0 2] [1 2 4 3->18] [0 0 0 0->0]
r 15.104128689 _9_ RTR  --- 15 DSR 60 [13a 9 13 800] ------- [18:255 3:255 253 9] 4 [0 2] [1 2 4 3->18] [0 0 0 0->0]
f 15.104128689 _9_ RTR  --- 15 DSR 60 [13a 9 13 800] ------- [18:255 3:255 252 3] 4 [0 2] [1 2 4 3->18] [0 0 0 0->0]
r 15.110101234 _11_ RTR  --- 18 cbr 548 [13a b 7 800] ------- [7:0 11:0 32 11] [1] 1 0
r 15.110101234 _11_ AGT  --- 18 cbr 512 [13a b 7 800] ------- [7:0 11:0 32 11] [1] 1 0
r 15.112203567 _7_ RTR  --- 14 DSR 68 [13a 7 8 800] ------- [18:255 3:255 252 7] 5 [0 2] [1 2 5 3->18] [0 0 0 0->0]
f 15.112203567 _7_ RTR  --- 14 DSR 68 [13a 7 8 800] ------- [18:255 3:255 251 3] 5 [0 2] [1 2 5 3->18] [0 0 0 0->0]
r 15.114232275 _3_ RTR  --- 15 DSR 60 [13a 3 9 800] ------- [18:255 3:255 252 3] 4 [0 2] [1 2 4 3->18] [0 0 0 0->0]
r 15.116639925 _7_ RTR  --- 16 DSR 68 [13a 7 14 800] ------- [18:255 3:255 252 7] 5 [0 2] [1 2 5 3->18] [0 0 0 0->0]
f 15.116639925 _7_ RTR  --- 16 DSR 68 [13a 7 14 800] ------- [18:255 3:255 251 3] 5 [0 2] [1 2 5 3->18] [0 0 0 0->0]
r 15.118662161 _3_ RTR  --- 14 DSR 68 [13a 3 7 800] ------- [18:255 3:255 251 3] 5 [0 2] [1 2 5 3->18] [0 0 0 0->0]