n -t * -s 0  -x 100 -y 0 -Z 0 -z 30  -v circle -c black
n -t * -s 1  -x 300 -y 0 -Z 0 -z 30  -v circle -c black
n -t * -s 2  -x 500 -y 0 -Z 0 -z 30  -v circle -c black
n -t * -s 3  -x 100 -y 100 -Z 0 -z 30  -v circle -c black
n -t * -s 4  -x 300 -y 100 -Z 0 -z 30  -v circle -c black
n -t * -s 5  -x 500 -y 100 -Z 0 -z 30  -v circle -c black
n -t * -s 6  -x 100 -y 200 -Z 0 -z 30  -v circle -c black
n -t * -s 7  -x 300 -y 200 -Z 0 -z 30  -v circle -c black
n -t * -s 8  -x 500 -y 200 -Z 0 -z 30  -v circle -c black
n -t * -s 9  -x 100 -y 300 -Z 0 -z 30  -v circle -c black
n -t * -s 10  -x 300 -y 300 -Z 0 -z 30  -v circle -c black
n -t * -s 11  -x 500 -y 300 -Z 0 -z 30  -v circle -c black
n -t * -s 12  -x 100 -y 400 -Z 0 -z 30  -v circle -c black
n -t * -s 13  -x 300 -y 400 -Z 0 -z 30  -v circle -c black
n -t * -s 14  -x 500 -y 400 -Z 0 -z 30  -v circle -c black
n -t * -s 15  -x 100 -y 500 -Z 0 -z 30  -v circle -c black
n -t * -s 16  -x 300 -y 500 -Z 0 -z 30  -v circle -c black
n -t * -s 17  -x 500 -y 500 -Z 0 -z 30  -v circle -c black
n -t * -s 18  -x 400 -y 500 -Z 0 -z 30  -v circle -c black
n -t * -s 19  -x 200 -y 500 -Z 0 -z 30  -v circle -c black
n -t * -s 20  -x 400 -y 400 -Z 0 -z 30  -v circle -c black
V -t * -v 1.0a5 -a 0
W -t * -x 500 -y 500
A -t * -n 1 -p 0 -o 0xffffffff -c 31 -a 1
A -t * -h 1 -m 2147483647 -s 0
+ -t 15.000000000 -s 0 -d -1 -p cbr -e 512 -c 2 -a 0 -i 0 -k AGT 
- -t 15.000000000 -s 0 -d -1 -p cbr -e 512 -c 2 -a 0 -i 0 -k AGT
h -t 15.000000000 -s 0 -d -1 -p cbr -e 512 -c 2 -a 0 -i 0 -k AGT
+ -t 15.000000000 -s 3 -d -1 -p cbr -e 512 -c 2 -a 0 -i 2 -k AGT 
- -t 15.000000000 -s 3 -d -1 -p cbr -e 512 -c 2 -a 0 -i 2 -k AGT
h -t 15.000000000 -s 3 -d -1 -p cbr -e 512 -c 2 -a 0 -i 2 -k AGT
+ -t 15.000000000 -s 7 -d -1 -p cbr -e 512 -c 2 -a 0 -i 4 -k AGT 
- -t 15.000000000 -s 7 -d -1 -p cbr -e 512 -c 2 -a 0 -i 4 -k AGT
h -t 15.000000000 -s 7 -d -1 -p cbr -e 512 -c 2 -a 0 -i 4 -k AGT
+ -t 15.000192043 -s 3 -d -1 -p DSR -e 32 -c 2 -a 0 -i 3 -k RTR 
- -t 15.000192043 -s 3 -d -1 -p DSR -e 32 -c 2 -a 0 -i 3 -k RTR
h -t 15.000192043 -s 3 -d -1 -p DSR -e 32 -c 2 -a 0 -i 3 -k RTR
+ -t 15.001436295 -s 0 -d -1 -p DSR -e 32 -c 2 -a 0 -i 1 -k RTR 
- -t 15.001436295 -s 0 -d -1 -p DSR -e 32 -c 2 -a 0 -i 1 -k RTR
h -t 15.001436295 -s 0 -d -1 -p DSR -e 32 -c 2 -a 0 -i 1 -k RTR
+ -t 15.006908785 -s 7 -d -1 -p DSR -e 32 -c 2 -a 0 -i 5 -k RTR 
- -t 15.006908785 -s 7 -d -1 -p DSR -e 32 -c 2 -a 0 -i 5 -k RTR
h -t 15.006908785 -s 7 -d -1 -p DSR -e 32 -c 2 -a 0 -i 5 -k RTR
+ -t 15.015983276 -s 11 -d 7 -p DSR -e 44 -c 2 -a 0 -i 7 -k RTR 
- -t 15.015983276 -s 11 -d 7 -p DSR -e 44 -c 2 -a 0 -i 7 -k RTR
h -t 15.015983276 -s 11 -d 7 -p DSR -e 44 -c 2 -a 0 -i 7 -k RTR
+ -t 15.017729512 -s 7 -d 11 -p cbr -e 548 -c 2 -a 0 -i 4 -k RTR 
- -t 15.017729512 -s 7 -d 11 -p cbr -e 548 -c 2 -a 0 -i 4 -k RTR
h -t 15.017729512 -s 7 -d 11 -p cbr -e 548 -c 2 -a 0 -i 4 -k RTR
r -t 15.023811748 -s 11 -d 11 -p cbr -e 512 -c 2 -a 0 -i 4 -k AGT
+ -t 15.032686151 -s 3 -d -1 -p DSR -e 32 -c 2 -a 0 -i 8 -k RTR 
- -t 15.032686151 -s 3 -d -1 -p DSR -e 32 -c 2 -a 0 -i 8 -k RTR
h -t 15.032686151 -s 3 -d -1 -p DSR -e 32 -c 2 -a 0 -i 8 -k RTR
+ -t 15.036664669 -s 0 -d -1 -p DSR -e 48 -c 2 -a 0 -i 8 -k RTR 
- -t 15.036664669 -s 0 -d -1 -p DSR -e 48 -c 2 -a 0 -i 8 -k RTR
h -t 15.036664669 -s 0 -d -1 -p DSR -e 48 -c 2 -a 0 -i 8 -k RTR
+ -t 15.037152370 -s 9 -d -1 -p DSR -e 48 -c 2 -a 0 -i 8 -k RTR 
- -t 15.037152370 -s 9 -d -1 -p DSR -e 48 -c 2 -a 0 -i 8 -k RTR
h -t 15.037152370 -s 9 -d -1 -p DSR -e 48 -c 2 -a 0 -i 8 -k RTR
+ -t 15.037324273 -s 6 -d -1 -p DSR -e 48 -c 2 -a 0 -i 8 -k RTR 
- -t 15.037324273 -s 6 -d -1 -p DSR -e 48 -c 2 -a 0 -i 8 -k RTR
h -t 15.037324273 -s 6 -d -1 -p DSR -e 48 -c 2 -a 0 -i 8 -k RTR
+ -t 15.037340035 -s 1 -d -1 -p DSR -e 48 -c 2 -a 0 -i 8 -k RTR 
- -t 15.037340035 -s 1 -d -1 -p DSR -e 48 -c 2 -a 0 -i 8 -k RTR
h -t 15.037340035 -s 1 -d -1 -p DSR -e 48 -c 2 -a 0 -i 8 -k RTR
+ -t 15.037663230 -s 4 -d -1 -p DSR -e 48 -c 2 -a 0 -i 8 -k RTR 
- -t 15.037663230 -s 4 -d -1 -p DSR -e 48 -c 2 -a 0 -i 8 -k RTR
h -t 15.037663230 -s 4 -d -1 -p DSR -e 48 -c 2 -a 0 -i 8 -k RTR
+ -t 15.038313845 -s 7 -d -1 -p DSR -e 48 -c 2 -a 0 -i 8 -k RTR 
- -t 15.038313845 -s 7 -d -1 -p DSR -e 48 -c 2 -a 0 -i 8 -k RTR
h -t 15.038313845 -s 7 -d -1 -p DSR -e 48 -c 2 -a 0 -i 8 -k RTR
+ -t 15.043112016 -s 13 -d -1 -p DSR -e 68 -c 2 -a 0 -i 8 -k RTR 
- -t 15.043112016 -s 13 -d -1 -p DSR -e 68 -c 2 -a 0 -i 8 -k RTR
h -t 15.043112016 -s 13 -d -1 -p DSR -e 68 -c 2 -a 0 -i 8 -k RTR
+ -t 15.043168845 -s 8 -d -1 -p DSR -e 68 -c 2 -a 0 -i 8 -k RTR 
- -t 15.043168845 -s 8 -d -1 -p DSR -e 68 -c 2 -a 0 -i 8 -k RTR
h -t 15.043168845 -s 8 -d -1 -p DSR -e 68 -c 2 -a 0 -i 8 -k RTR
+ -t 15.043372875 -s 20 -d -1 -p DSR -e 68 -c 2 -a 0 -i 8 -k RTR 
- -t 15.043372875 -s 20 -d -1 -p DSR -e 68 -c 2 -a 0 -i 8 -k RTR
h -t 15.043372875 -s 20 -d -1 -p DSR -e 68 -c 2 -a 0 -i 8 -k RTR
+ -t 15.043479951 -s 0 -d -1 -p DSR -e 32 -c 2 -a 0 -i 9 -k RTR 
- -t 15.043479951 -s 0 -d -1 -p DSR -e 32 -c 2 -a 0 -i 9 -k RTR
h -t 15.043479951 -s 0 -d -1 -p DSR -e 32 -c 2 -a 0 -i 9 -k RTR
+ -t 15.044339278 -s 10 -d -1 -p DSR -e 68 -c 2 -a 0 -i 8 -k RTR 
- -t 15.044339278 -s 10 -d -1 -p DSR -e 68 -c 2 -a 0 -i 8 -k RTR
h -t 15.044339278 -s 10 -d -1 -p DSR -e 68 -c 2 -a 0 -i 8 -k RTR
+ -t 15.045139461 -s 2 -d -1 -p DSR -e 68 -c 2 -a 0 -i 8 -k RTR 
- -t 15.045139461 -s 2 -d -1 -p DSR -e 68 -c 2 -a 0 -i 8 -k RTR
h -t 15.045139461 -s 2 -d -1 -p DSR -e 68 -c 2 -a 0 -i 8 -k RTR
+ -t 15.046203189 -s 14 -d -1 -p DSR -e 92 -c 2 -a 0 -i 8 -k RTR 
- -t 15.046203189 -s 14 -d -1 -p DSR -e 92 -c 2 -a 0 -i 8 -k RTR
h -t 15.046203189 -s 14 -d -1 -p DSR -e 92 -c 2 -a 0 -i 8 -k RTR
+ -t 15.047588471 -s 11 -d -1 -p DSR -e 68 -c 2 -a 0 -i 8 -k RTR 
- -t 15.047588471 -s 11 -d -1 -p DSR -e 68 -c 2 -a 0 -i 8 -k RTR
h -t 15.047588471 -s 11 -d -1 -p DSR -e 68 -c 2 -a 0 -i 8 -k RTR
+ -t 15.047697539 -s 5 -d -1 -p DSR -e 68 -c 2 -a 0 -i 8 -k RTR 
- -t 15.047697539 -s 5 -d -1 -p DSR -e 68 -c 2 -a 0 -i 8 -k RTR
h -t 15.047697539 -s 5 -d -1 -p DSR -e 68 -c 2 -a 0 -i 8 -k RTR
+ -t 15.047775927 -s 12 -d -1 -p DSR -e 68 -c 2 -a 0 -i 8 -k RTR 
- -t 15.047775927 -s 12 -d -1 -p DSR -e 68 -c 2 -a 0 -i 8 -k RTR
h -t 15.047775927 -s 12 -d -1 -p DSR -e 68 -c 2 -a 0 -i 8 -k RTR
+ -t 15.049289783 -s 19 -d -1 -p DSR -e 68 -c 2 -a 0 -i 8 -k RTR 
- -t 15.049289783 -s 19 -d -1 -p DSR -e 68 -c 2 -a 0 -i 8 -k RTR
h -t 15.049289783 -s 19 -d -1 -p DSR -e 68 -c 2 -a 0 -i 8 -k RTR
+ -t 15.049481030 -s 15 -d -1 -p DSR -e 68 -c 2 -a 0 -i 8 -k RTR 
- -t 15.049481030 -s 15 -d -1 -p DSR -e 68 -c 2 -a 0 -i 8 -k RTR
h -t 15.049481030 -s 15 -d -1 -p DSR -e 68 -c 2 -a 0 -i 8 -k RTR
+ -t 15.051716890 -s 17 -d -1 -p DSR -e 92 -c 2 -a 0 -i 8 -k RTR 
- -t 15.051716890 -s 17 -d -1 -p DSR -e 92 -c 2 -a 0 -i 8 -k RTR
h -t 15.051716890 -s 17 -d -1 -p DSR -e 92 -c 2 -a 0 -i 8 -k RTR
+ -t 15.052069172 -s 18 -d 13 -p DSR -e 60 -c 2 -a 0 -i 12 -k RTR 
- -t 15.052069172 -s 18 -d 13 -p DSR -e 60 -c 2 -a 0 -i 12 -k RTR
h -t 15.052069172 -s 18 -d 13 -p DSR -e 60 -c 2 -a 0 -i 12 -k RTR
+ -t 15.052201387 -s 16 -d -1 -p DSR -e 92 -c 2 -a 0 -i 8 -k RTR 
- -t 15.052201387 -s 16 -d -1 -p DSR -e 92 -c 2 -a 0 -i 8 -k RTR
h -t 15.052201387 -s 16 -d -1 -p DSR -e 92 -c 2 -a 0 -i 8 -k RTR
+ -t 15.052511958 -s 18 -d 11 -p DSR -e 60 -c 2 -a 0 -i 13 -k RTR 
- -t 15.052511958 -s 18 -d 11 -p DSR -e 60 -c 2 -a 0 -i 13 -k RTR
h -t 15.052511958 -s 18 -d 11 -p DSR -e 60 -c 2 -a 0 -i 13 -k RTR
+ -t 15.053065226 -s 18 -d 20 -p DSR -e 60 -c 2 -a 0 -i 10 -k RTR 
- -t 15.053065226 -s 18 -d 20 -p DSR -e 60 -c 2 -a 0 -i 10 -k RTR
h -t 15.053065226 -s 18 -d 20 -p DSR -e 60 -c 2 -a 0 -i 10 -k RTR
+ -t 15.054303875 -s 18 -d 10 -p DSR -e 60 -c 2 -a 0 -i 11 -k RTR 
- -t 15.054303875 -s 18 -d 10 -p DSR -e 60 -c 2 -a 0 -i 11 -k RTR
h -t 15.054303875 -s 18 -d 10 -p DSR -e 60 -c 2 -a 0 -i 11 -k RTR
+ -t 15.055991646 -s 18 -d 14 -p DSR -e 68 -c 2 -a 0 -i 14 -k RTR 
- -t 15.055991646 -s 18 -d 14 -p DSR -e 68 -c 2 -a 0 -i 14 -k RTR
h -t 15.055991646 -s 18 -d 14 -p DSR -e 68 -c 2 -a 0 -i 14 -k RTR
+ -t 15.059433301 -s 13 -d 7 -p DSR -e 60 -c 2 -a 0 -i 12 -k RTR 
- -t 15.059433301 -s 13 -d 7 -p DSR -e 60 -c 2 -a 0 -i 12 -k RTR
h -t 15.059433301 -s 13 -d 7 -p DSR -e 60 -c 2 -a 0 -i 12 -k RTR
+ -t 15.061321225 -s 18 -d 19 -p DSR -e 60 -c 2 -a 0 -i 15 -k RTR 
- -t 15.061321225 -s 18 -d 19 -p DSR -e 60 -c 2 -a 0 -i 15 -k RTR
h -t 15.061321225 -s 18 -d 19 -p DSR -e 60 -c 2 -a 0 -i 15 -k RTR
+ -t 15.061955186 -s 14 -d 8 -p DSR -e 68 -c 2 -a 0 -i 14 -k RTR 
- -t 15.061955186 -s 14 -d 8 -p DSR -e 68 -c 2 -a 0 -i 14 -k RTR
h -t 15.061955186 -s 14 -d 8 -p DSR -e 68 -c 2 -a 0 -i 14 -k RTR
+ -t 15.062123763 -s 18 -d 16 -p DSR -e 68 -c 2 -a 0 -i 16 -k RTR 
- -t 15.062123763 -s 18 -d 16 -p DSR -e 68 -c 2 -a 0 -i 16 -k RTR
h -t 15.062123763 -s 18 -d 16 -p DSR -e 68 -c 2 -a 0 -i 16 -k RTR
+ -t 15.063822578 -s 18 -d 17 -p DSR -e 68 -c 2 -a 0 -i 17 -k RTR 
- -t 15.063822578 -s 18 -d 17 -p DSR -e 68 -c 2 -a 0 -i 17 -k RTR
h -t 15.063822578 -s 18 -d 17 -p DSR -e 68 -c 2 -a 0 -i 17 -k RTR
+ -t 15.063913853 -s 7 -d 3 -p DSR -e 60 -c 2 -a 0 -i 12 -k RTR 
- -t 15.063913853 -s 7 -d 3 -p DSR -e 60 -c 2 -a 0 -i 12 -k RTR
h -t 15.063913853 -s 7 -d 3 -p DSR -e 60 -c 2 -a 0 -i 12 -k RTR
+ -t 15.066132089 -s 3 -d 7 -p cbr -e 556 -c 2 -a 0 -i 2 -k RTR 
- -t 15.066132089 -s 3 -d 7 -p cbr -e 556 -c 2 -a 0 -i 2 -k RTR
h -t 15.066132089 -s 3 -d 7 -p cbr -e 556 -c 2 -a 0 -i 2 -k RTR
+ -t 15.072458325 -s 7 -d 13 -p cbr -e 556 -c 2 -a 0 -i 2 -k RTR 
- -t 15.072458325 -s 7 -d 13 -p cbr -e 556 -c 2 -a 0 -i 2 -k RTR
h -t 15.072458325 -s 7 -d 13 -p cbr -e 556 -c 2 -a 0 -i 2 -k RTR
+ -t 15.077812255 -s 7 -d -1 -p cbr -e 512 -c 2 -a 0 -i 18 -k AGT 
- -t 15.077812255 -s 7 -d -1 -p cbr -e 512 -c 2 -a 0 -i 18 -k AGT
h -t 15.077812255 -s 7 -d -1 -p cbr -e 512 -c 2 -a 0 -i 18 -k AGT
+ -t 15.077812255 -s 7 -d 11 -p cbr -e 548 -c 2 -a 0 -i 18 -k RTR 
- -t 15.077812255 -s 7 -d 11 -p cbr -e 548 -c 2 -a 0 -i 18 -k RTR
h -t 15.077812255 -s 7 -d 11 -p cbr -e 548 -c 2 -a 0 -i 18 -k RTR
+ -t 15.078544325 -s 13 -d 18 -p cbr -e 556 -c 2 -a 0 -i 2 -k RTR 
- -t 15.078544325 -s 13 -d 18 -p cbr -e 556 -c 2 -a 0 -i 2 -k RTR
h -t 15.078544325 -s 13 -d 18 -p cbr -e 556 -c 2 -a 0 -i 2 -k RTR
r -t 15.084589739 -s 18 -d 18 -p cbr -e 512 -c 2 -a 0 -i 2 -k AGT
+ -t 15.086308703 -s 0 -d 3 -p cbr -e 560 -c 2 -a 0 -i 0 -k RTR 
- -t 15.086308703 -s 0 -d 3 -p cbr -e 560 -c 2 -a 0 -i 0 -k RTR
h -t 15.086308703 -s 0 -d 3 -p cbr -e 560 -c 2 -a 0 -i 0 -k RTR
+ -t 15.086772211 -s 8 -d 7 -p DSR -e 68 -c 2 -a 0 -i 14 -k RTR 
- -t 15.086772211 -s 8 -d 7 -p DSR -e 68 -c 2 -a 0 -i 14 -k RTR
h -t 15.086772211 -s 8 -d 7 -p DSR -e 68 -c 2 -a 0 -i 14 -k RTR
+ -t 15.089318265 -s 16 -d 20 -p DSR -e 68 -c 2 -a 0 -i 16 -k RTR 
- -t 15.089318265 -s 16 -d 20 -p DSR -e 68 -c 2 -a 0 -i 16 -k RTR
h -t 15.089318265 -s 16 -d 20 -p DSR -e 68 -c 2 -a 0 -i 16 -k RTR
+ -t 15.091499598 -s 17 -d 20 -p DSR -e 68 -c 2 -a 0 -i 17 -k RTR 
- -t 15.091499598 -s 17 -d 20 -p DSR -e 68 -c 2 -a 0 -i 17 -k RTR
h -t 15.091499598 -s 17 -d 20 -p DSR -e 68 -c 2 -a 0 -i 17 -k RTR
+ -t 15.093617931 -s 19 -d 9 -p DSR -e 60 -c 2 -a 0 -i 15 -k RTR 
- -t 15.093617931 -s 19 -d 9 -p DSR -e 60 -c 2 -a 0 -i 15 -k RTR
h -t 15.093617931 -s 19 -d 9 -p DSR -e 60 -c 2 -a 0 -i 15 -k RTR
+ -t 15.096031507 -s 20 -d 7 -p DSR -e 68 -c 2 -a 0 -i 16 -k RTR 
- -t 15.096031507 -s 20 -d 7 -p DSR -e 68 -c 2 -a 0 -i 16 -k RTR
h -t 15.096031507 -s 20 -d 7 -p DSR -e 68 -c 2 -a 0 -i 16 -k RTR
+ -t 15.098093393 -s 20 -d 7 -p DSR -e 68 -c 2 -a 0 -i 17 -k RTR 
- -t 15.098093393 -s 20 -d 7 -p DSR -e 68 -c 2 -a 0 -i 17 -k RTR
h -t 15.098093393 -s 20 -d 7 -p DSR -e 68 -c 2 -a 0 -i 17 -k RTR
+ -t 15.099261759 -s 0 -d -1 -p cbr -e 512 -c 2 -a 0 -i 19 -k AGT 
- -t 15.099261759 -s 0 -d -1 -p cbr -e 512 -c 2 -a 0 -i 19 -k AGT
h -t 15.099261759 -s 0 -d -1 -p cbr -e 512 -c 2 -a 0 -i 19 -k AGT
+ -t 15.099261759 -s 0 -d 3 -p cbr -e 560 -c 2 -a 0 -i 19 -k RTR 
- -t 15.099261759 -s 0 -d 3 -p cbr -e 560 -c 2 -a 0 -i 19 -k RTR
h -t 15.099261759 -s 0 -d 3 -p cbr -e 560 -c 2 -a 0 -i 19 -k RTR
+ -t 15.100131962 -s 10 -d 6 -p DSR -e 60 -c 2 -a 0 -i 11 -k RTR 
- -t 15.100131962 -s 10 -d 6 -p DSR -e 60 -c 2 -a 0 -i 11 -k RTR
h -t 15.100131962 -s 10 -d 6 -p DSR -e 60 -c 2 -a 0 -i 11 -k RTR
+ -t 15.102149707 -s 20 -d 7 -p DSR -e 60 -c 2 -a 0 -i 10 -k RTR 
- -t 15.102149707 -s 20 -d 7 -p DSR -e 60 -c 2 -a 0 -i 10 -k RTR
h -t 15.102149707 -s 20 -d 7 -p DSR -e 60 -c 2 -a 0 -i 10 -k RTR
+ -t 15.104128689 -s 9 -d 3 -p DSR -e 60 -c 2 -a 0 -i 15 -k RTR 
- -t 15.104128689 -s 9 -d 3 -p DSR -e 60 -c 2 -a 0 -i 15 -k RTR
h -t 15.104128689 -s 9 -d 3 -p DSR -e 60 -c 2 -a 0 -i 15 -k RTR
r -t 15.110101234 -s 11 -d 11 -p cbr -e 512 -c 2 -a 0 -i 18 -k AGT
+ -t 15.112203567 -s 7 -d 3 -p DSR -e 68 -c 2 -a 0 -i 14 -k RTR 
- -t 15.112203567 -s 7 -d 3 -p DSR -e 68 -c 2 -a 0 -i 14 -k RTR
h -t 15.112203567 -s 7 -d 3 -p DSR -e 68 -c 2 -a 0 -i 14 -k RTR
+ -t 15.116639925 -s 7 -d 3 -p DSR -e 68 -c 2 -a 0 -i 16 -k RTR 
- -t 15.116639925 -s 7 -d 3 -p DSR -e 68 -c 2 -a 0 -i 16 -k RTR
h -t 15.116639925 -s 7 -d 3 -p DSR -e 68 -c 2 -a 0 -i 16 -k RTR
+ -t 15.121045340 -s 6 -d 3 -p DSR -e 60 -c 2 -a 0 -i 11 -k RTR 
- -t 15.121045340 -s 6 -d 3 -p DSR -e 60 -c 2 -a 0 -i 11 -k RTR
h -t 15.121045340 -s 6 -d 3 -p DSR -e 60 -c 2 -a 0 -i 11 -k RTR
+ -t 15.128755812 -s 7 -d 3 -p DSR -e 60 -c 2 -a 0 -i 10 -k RTR 
- -t 15.128755812 -s 7 -d 3 -p DSR -e 60 -c 2 -a 0 -i 10 -k RTR
h -t 15.128755812 -s 7 -d 3 -p DSR -e 60 -c 2 -a 0 -i 10 -k RTR
+ -t 15.130898793 -s 7 -d 3 -p DSR -e 68 -c 2 -a 0 -i 17 -k RTR 
- -t 15.130898793 -s 7 -d 3 -p DSR -e 68 -c 2 -a 0 -i 17 -k RTR
h -t 15.130898793 -s 7 -d 3 -p DSR -e 68 -c 2 -a 0 -i 17 -k RTR
+ -t 15.135000562 -s 3 -d -1 -p cbr -e 512 -c 2 -a 0 -i 20 -k AGT 
- -t 15.135000562 -s 3 -d -1 -p cbr -e 512 -c 2 -a 0 -i 20 -k AGT
h -t 15.135000562 -s 3 -d -1 -p cbr -e 512 -c 2 -a 0 -i 20 -k AGT
+ -t 15.135000562 -s 3 -d 7 -p cbr -e 556 -c 2 -a 0 -i 20 -k RTR 
- -t 15.135000562 -s 3 -d 7 -p cbr -e 556 -c 2 -a 0 -i 20 -k RTR
h -t 15.135000562 -s 3 -d 7 -p cbr -e 556 -c 2 -a 0 -i 20 -k RTR
+ -t 15.135260932 -s 11 -d 7 -p DSR -e 60 -c 2 -a 0 -i 13 -k RTR 
- -t 15.135260932 -s 11 -d 7 -p DSR -e 60 -c 2 -a 0 -i 13 -k RTR
h -t 15.135260932 -s 11 -d 7 -p DSR -e 60 -c 2 -a 0 -i 13 -k RTR
+ -t 15.143579713 -s 7 -d 13 -p cbr -e 556 -c 2 -a 0 -i 20 -k RTR 
- -t 15.143579713 -s 7 -d 13 -p cbr -e 556 -c 2 -a 0 -i 20 -k RTR
h -t 15.143579713 -s 7 -d 13 -p cbr -e 556 -c 2 -a 0 -i 20 -k RTR
+ -t 15.149685713 -s 13 -d 18 -p cbr -e 556 -c 2 -a 0 -i 20 -k RTR 
- -t 15.149685713 -s 13 -d 18 -p cbr -e 556 -c 2 -a 0 -i 20 -k RTR
h -t 15.149685713 -s 13 -d 18 -p cbr -e 556 -c 2 -a 0 -i 20 -k RTR
+ -t 15.151824694 -s 7 -d 3 -p DSR -e 60 -c 2 -a 0 -i 13 -k RTR 
- -t 15.151824694 -s 7 -d 3 -p DSR -e 60 -c 2 -a 0 -i 13 -k RTR
h -t 15.151824694 -s 7 -d 3 -p DSR -e 60 -c 2 -a 0 -i 13 -k RTR
r -t 15.160233547 -s 18 -d 18 -p cbr -e 512 -c 2 -a 0 -i 20 -k AGT
+ -t 15.166037232 -s 0 -d -1 -p cbr -e 512 -c 2 -a 0 -i 21 -k AGT 
- -t 15.166037232 -s 0 -d -1 -p cbr -e 512 -c 2 -a 0 -i 21 -k AGT
h -t 15.166037232 -s 0 -d -1 -p cbr -e 512 -c 2 -a 0 -i 21 -k AGT
+ -t 15.166037232 -s 0 -d 3 -p cbr -e 560 -c 2 -a 0 -i 21 -k RTR 
- -t 15.166037232 -s 0 -d 3 -p cbr -e 560 -c 2 -a 0 -i 21 -k RTR
h -t 15.166037232 -s 0 -d 3 -p cbr -e 560 -c 2 -a 0 -i 21 -k RTR
+ -t 15.171581566 -s 3 -d 7 -p cbr -e 560 -c 2 -a 0 -i 0 -k RTR 
- -t 15.171581566 -s 3 -d 7 -p cbr -e 560 -c 2 -a 0 -i 0 -k RTR
h -t 15.171581566 -s 3 -d 7 -p cbr -e 560 -c 2 -a 0 -i 0 -k RTR
+ -t 15.177779802 -s 7 -d 13 -p cbr -e 560 -c 2 -a 0 -i 0 -k RTR 
- -t 15.177779802 -s 7 -d 13 -p cbr -e 560 -c 2 -a 0 -i 0 -k RTR
h -t 15.177779802 -s 7 -d 13 -p cbr -e 560 -c 2 -a 0 -i 0 -k RTR
+ -t 15.183917802 -s 13 -d 18 -p cbr -e 560 -c 2 -a 0 -i 0 -k RTR 
- -t 15.183917802 -s 13 -d 18 -p cbr -e 560 -c 2 -a 0 -i 0 -k RTR
h -t 15.183917802 -s 13 -d 18 -p cbr -e 560 -c 2 -a 0 -i 0 -k RTR
r -t 15.190095216 -s 18 -d 18 -p cbr -e 512 -c 2 -a 0 -i 0 -k AGT
+ -t 15.194952198 -s 3 -d -1 -p cbr -e 512 -c 2 -a 0 -i 22 -k AGT 
- -t 15.194952198 -s 3 -d -1 -p cbr -e 512 -c 2 -a 0 -i 22 -k AGT
h -t 15.194952198 -s 3 -d -1 -p cbr -e 512 -c 2 -a 0 -i 22 -k AGT
+ -t 15.194952198 -s 3 -d 7 -p cbr -e 556 -c 2 -a 0 -i 22 -k RTR 
- -t 15.194952198 -s 3 -d 7 -p cbr -e 556 -c 2 -a 0 -i 22 -k RTR
h -t 15.194952198 -s 3 -d 7 -p cbr -e 556 -c 2 -a 0 -i 22 -k RTR
+ -t 15.196423235 -s 3 -d 7 -p cbr -e 560 -c 2 -a 0 -i 19 -k RTR 
- -t 15.196423235 -s 3 -d 7 -p cbr -e 560 -c 2 -a 0 -i 19 -k RTR
h -t 15.196423235 -s 3 -d 7 -p cbr -e 560 -c 2 -a 0 -i 19 -k RTR
+ -t 15.201013128 -s 7 -d -1 -p cbr -e 512 -c 2 -a 0 -i 23 -k AGT 
- -t 15.201013128 -s 7 -d -1 -p cbr -e 512 -c 2 -a 0 -i 23 -k AGT
h -t 15.201013128 -s 7 -d -1 -p cbr -e 512 -c 2 -a 0 -i 23 -k AGT
+ -t 15.201013128 -s 7 -d 11 -p cbr -e 548 -c 2 -a 0 -i 23 -k RTR 
- -t 15.201013128 -s 7 -d 11 -p cbr -e 548 -c 2 -a 0 -i 23 -k RTR
h -t 15.201013128 -s 7 -d 11 -p cbr -e 548 -c 2 -a 0 -i 23 -k RTR
+ -t 15.202349472 -s 7 -d 13 -p cbr -e 556 -c 2 -a 0 -i 22 -k RTR 
- -t 15.202349472 -s 7 -d 13 -p cbr -e 556 -c 2 -a 0 -i 22 -k RTR
h -t 15.202349472 -s 7 -d 13 -p cbr -e 556 -c 2 -a 0 -i 22 -k RTR
+ -t 15.208308453 -s 7 -d 13 -p cbr -e 560 -c 2 -a 0 -i 19 -k RTR 
- -t 15.208308453 -s 7 -d 13 -p cbr -e 560 -c 2 -a 0 -i 19 -k RTR
h -t 15.208308453 -s 7 -d 13 -p cbr -e 560 -c 2 -a 0 -i 19 -k RTR
r -t 15.214630689 -s 11 -d 11 -p cbr -e 512 -c 2 -a 0 -i 23 -k AGT
+ -t 15.220717434 -s 13 -d 18 -p cbr -e 556 -c 2 -a 0 -i 22 -k RTR 
- -t 15.220717434 -s 13 -d 18 -p cbr -e 556 -c 2 -a 0 -i 22 -k RTR
h -t 15.220717434 -s 13 -d 18 -p cbr -e 556 -c 2 -a 0 -i 22 -k RTR
+ -t 15.226676101 -s 13 -d 18 -p cbr -e 560 -c 2 -a 0 -i 19 -k RTR 
- -t 15.226676101 -s 13 -d 18 -p cbr -e 560 -c 2 -a 0 -i 19 -k RTR
h -t 15.226676101 -s 13 -d 18 -p cbr -e 560 -c 2 -a 0 -i 19 -k RTR
r -t 15.232801515 -s 18 -d 18 -p cbr -e 512 -c 2 -a 0 -i 22 -k AGT
+ -t 15.238809535 -s 3 -d 7 -p cbr -e 560 -c 2 -a 0 -i 21 -k RTR 
- -t 15.238809535 -s 3 -d 7 -p cbr -e 560 -c 2 -a 0 -i 21 -k RTR
h -t 15.238809535 -s 3 -d 7 -p cbr -e 560 -c 2 -a 0 -i 21 -k RTR
+ -t 15.241487884 -s 0 -d -1 -p cbr -e 512 -c 2 -a 0 -i 24 -k AGT 
- -t 15.241487884 -s 0 -d -1 -p cbr -e 512 -c 2 -a 0 -i 24 -k AGT
h -t 15.241487884 -s 0 -d -1 -p cbr -e 512 -c 2 -a 0 -i 24 -k AGT
+ -t 15.241487884 -s 0 -d 3 -p cbr -e 532 -c 2 -a 0 -i 24 -k RTR 
- -t 15.241487884 -s 0 -d 3 -p cbr -e 532 -c 2 -a 0 -i 24 -k RTR
h -t 15.241487884 -s 0 -d 3 -p cbr -e 532 -c 2 -a 0 -i 24 -k RTR
+ -t 15.244787771 -s 7 -d 13 -p cbr -e 560 -c 2 -a 0 -i 21 -k RTR 
- -t 15.244787771 -s 7 -d 13 -p cbr -e 560 -c 2 -a 0 -i 21 -k RTR
h -t 15.244787771 -s 7 -d 13 -p cbr -e 560 -c 2 -a 0 -i 21 -k RTR
+ -t 15.250805771 -s 13 -d 18 -p cbr -e 560 -c 2 -a 0 -i 21 -k RTR 
- -t 15.250805771 -s 13 -d 18 -p cbr -e 560 -c 2 -a 0 -i 21 -k RTR
h -t 15.250805771 -s 13 -d 18 -p cbr -e 560 -c 2 -a 0 -i 21 -k RTR
r -t 15.257143185 -s 18 -d 18 -p cbr -e 512 -c 2 -a 0 -i 19 -k AGT
+ -t 15.262947204 -s 3 -d 7 -p cbr -e 532 -c 2 -a 0 -i 24 -k RTR 
- -t 15.262947204 -s 3 -d 7 -p cbr -e 532 -c 2 -a 0 -i 24 -k RTR
h -t 15.262947204 -s 3 -d 7 -p cbr -e 532 -c 2 -a 0 -i 24 -k RTR
+ -t 15.263751215 -s 3 -d -1 -p cbr -e 512 -c 2 -a 0 -i 25 -k AGT 
- -t 15.263751215 -s 3 -d -1 -p cbr -e 512 -c 2 -a 0 -i 25 -k AGT
h -t 15.263751215 -s 3 -d -1 -p cbr -e 512 -c 2 -a 0 -i 25 -k AGT
+ -t 15.263751215 -s 3 -d 7 -p cbr -e 532 -c 2 -a 0 -i 25 -k RTR 
- -t 15.263751215 -s 3 -d 7 -p cbr -e 532 -c 2 -a 0 -i 25 -k RTR
h -t 15.263751215 -s 3 -d 7 -p cbr -e 532 -c 2 -a 0 -i 25 -k RTR
+ -t 15.268941440 -s 7 -d 13 -p cbr -e 532 -c 2 -a 0 -i 24 -k RTR 
- -t 15.268941440 -s 7 -d 13 -p cbr -e 532 -c 2 -a 0 -i 24 -k RTR
h -t 15.268941440 -s 7 -d 13 -p cbr -e 532 -c 2 -a 0 -i 24 -k RTR
+ -t 15.271368948 -s 7 -d -1 -p cbr -e 512 -c 2 -a 0 -i 26 -k AGT 
- -t 15.271368948 -s 7 -d -1 -p cbr -e 512 -c 2 -a 0 -i 26 -k AGT
h -t 15.271368948 -s 7 -d -1 -p cbr -e 512 -c 2 -a 0 -i 26 -k AGT
+ -t 15.271368948 -s 7 -d 11 -p cbr -e 532 -c 2 -a 0 -i 26 -k RTR 
- -t 15.271368948 -s 7 -d 11 -p cbr -e 532 -c 2 -a 0 -i 26 -k RTR
h -t 15.271368948 -s 7 -d 11 -p cbr -e 532 -c 2 -a 0 -i 26 -k RTR
+ -t 15.274755440 -s 13 -d 18 -p cbr -e 532 -c 2 -a 0 -i 24 -k RTR 
- -t 15.274755440 -s 13 -d 18 -p cbr -e 532 -c 2 -a 0 -i 24 -k RTR
h -t 15.274755440 -s 13 -d 18 -p cbr -e 532 -c 2 -a 0 -i 24 -k RTR
r -t 15.280852854 -s 18 -d 18 -p cbr -e 512 -c 2 -a 0 -i 21 -k AGT
r -t 15.286586740 -s 18 -d 18 -p cbr -e 512 -c 2 -a 0 -i 24 -k AGT
+ -t 15.292826643 -s 7 -d 13 -p cbr -e 532 -c 2 -a 0 -i 25 -k RTR 
- -t 15.292826643 -s 7 -d 13 -p cbr -e 532 -c 2 -a 0 -i 25 -k RTR
h -t 15.292826643 -s 7 -d 13 -p cbr -e 532 -c 2 -a 0 -i 25 -k RTR
r -t 15.298580879 -s 11 -d 11 -p cbr -e 512 -c 2 -a 0 -i 26 -k AGT
+ -t 15.304435624 -s 13 -d 18 -p cbr -e 532 -c 2 -a 0 -i 25 -k RTR 
- -t 15.304435624 -s 13 -d 18 -p cbr -e 532 -c 2 -a 0 -i 25 -k RTR
h -t 15.304435624 -s 13 -d 18 -p cbr -e 532 -c 2 -a 0 -i 25 -k RTR
r -t 15.310609038 -s 18 -d 18 -p cbr -e 512 -c 2 -a 0 -i 25 -k AGT
+ -t 15.347825136 -s 7 -d -1 -p cbr -e 512 -c 2 -a 0 -i 27 -k AGT 
- -t 15.347825136 -s 7 -d -1 -p cbr -e 512 -c 2 -a 0 -i 27 -k AGT
h -t 15.347825136 -s 7 -d -1 -p cbr -e 512 -c 2 -a 0 -i 27 -k AGT
+ -t 15.347825136 -s 7 -d 11 -p cbr -e 532 -c 2 -a 0 -i 27 -k RTR 
- -t 15.347825136 -s 7 -d 11 -p cbr -e 532 -c 2 -a 0 -i 27 -k RTR
h -t 15.347825136 -s 7 -d 11 -p cbr -e 532 -c 2 -a 0 -i 27 -k RTR
r -t 15.353695373 -s 11 -d 11 -p cbr -e 512 -c 2 -a 0 -i 27 -k AGT
+ -t 15.362606242 -s 3 -d -1 -p cbr -e 512 -c 2 -a 0 -i 28 -k AGT 
- -t 15.362606242 -s 3 -d -1 -p cbr -e 512 -c 2 -a 0 -i 28 -k AGT
h -t 15.362606242 -s 3 -d -1 -p cbr -e 512 -c 2 -a 0 -i 28 -k AGT
+ -t 15.362606242 -s 3 -d 7 -p cbr -e 532 -c 2 -a 0 -i 28 -k RTR 
- -t 15.362606242 -s 3 -d 7 -p cbr -e 532 -c 2 -a 0 -i 28 -k RTR
h -t 15.362606242 -s 3 -d 7 -p cbr -e 532 -c 2 -a 0 -i 28 -k RTR
+ -t 15.368256478 -s 7 -d 13 -p cbr -e 532 -c 2 -a 0 -i 28 -k RTR 
- -t 15.368256478 -s 7 -d 13 -p cbr -e 532 -c 2 -a 0 -i 28 -k RTR
h -t 15.368256478 -s 7 -d 13 -p cbr -e 532 -c 2 -a 0 -i 28 -k RTR
+ -t 15.374163546 -s 0 -d -1 -p cbr -e 512 -c 2 -a 0 -i 29 -k AGT 
- -t 15.374163546 -s 0 -d -1 -p cbr -e 512 -c 2 -a 0 -i 29 -k AGT
h -t 15.374163546 -s 0 -d -1 -p cbr -e 512 -c 2 -a 0 -i 29 -k AGT
+ -t 15.374163546 -s 0 -d 3 -p cbr -e 532 -c 2 -a 0 -i 29 -k RTR 
- -t 15.374163546 -s 0 -d 3 -p cbr -e 532 -c 2 -a 0 -i 29 -k RTR
h -t 15.374163546 -s 0 -d 3 -p cbr -e 532 -c 2 -a 0 -i 29 -k RTR
+ -t 15.374450478 -s 13 -d 18 -p cbr -e 532 -c 2 -a 0 -i 28 -k RTR 
- -t 15.374450478 -s 13 -d 18 -p cbr -e 532 -c 2 -a 0 -i 28 -k RTR
h -t 15.374450478 -s 13 -d 18 -p cbr -e 532 -c 2 -a 0 -i 28 -k RTR
r -t 15.380163892 -s 18 -d 18 -p cbr -e 512 -c 2 -a 0 -i 28 -k AGT
+ -t 15.386407912 -s 3 -d 7 -p cbr -e 532 -c 2 -a 0 -i 29 -k RTR 
- -t 15.386407912 -s 3 -d 7 -p cbr -e 532 -c 2 -a 0 -i 29 -k RTR
h -t 15.386407912 -s 3 -d 7 -p cbr -e 532 -c 2 -a 0 -i 29 -k RTR
+ -t 15.392382148 -s 7 -d 13 -p cbr -e 532 -c 2 -a 0 -i 29 -k RTR 
- -t 15.392382148 -s 7 -d 13 -p cbr -e 532 -c 2 -a 0 -i 29 -k RTR
h -t 15.392382148 -s 7 -d 13 -p cbr -e 532 -c 2 -a 0 -i 29 -k RTR
+ -t 15.398136148 -s 13 -d 18 -p cbr -e 532 -c 2 -a 0 -i 29 -k RTR 
- -t 15.398136148 -s 13 -d 18 -p cbr -e 532 -c 2 -a 0 -i 29 -k RTR
h -t 15.398136148 -s 13 -d 18 -p cbr -e 532 -c 2 -a 0 -i 29 -k RTR
r -t 15.403949562 -s 18 -d 18 -p cbr -e 512 -c 2 -a 0 -i 29 -k AGT
+ -t 15.410218321 -s 7 -d -1 -p cbr -e 512 -c 2 -a 0 -i 30 -k AGT 
- -t 15.410218321 -s 7 -d -1 -p cbr -e 512 -c 2 -a 0 -i 30 -k AGT
h -t 15.410218321 -s 7 -d -1 -p cbr -e 512 -c 2 -a 0 -i 30 -k AGT
+ -t 15.410218321 -s 7 -d 11 -p cbr -e 532 -c 2 -a 0 -i 30 -k RTR 
- -t 15.410218321 -s 7 -d 11 -p cbr -e 532 -c 2 -a 0 -i 30 -k RTR
h -t 15.410218321 -s 7 -d 11 -p cbr -e 532 -c 2 -a 0 -i 30 -k RTR
r -t 15.416088557 -s 11 -d 11 -p cbr -e 512 -c 2 -a 0 -i 30 -k AGT
+ -t 15.432145723 -s 0 -d -1 -p cbr -e 512 -c 2 -a 0 -i 31 -k AGT 
- -t 15.432145723 -s 0 -d -1 -p cbr -e 512 -c 2 -a 0 -i 31 -k AGT
h -t 15.432145723 -s 0 -d -1 -p cbr -e 512 -c 2 -a 0 -i 31 -k AGT
+ -t 15.432145723 -s 0 -d 3 -p cbr -e 532 -c 2 -a 0 -i 31 -k RTR 
- -t 15.432145723 -s 0 -d 3 -p cbr -e 532 -c 2 -a 0 -i 31 -k RTR
h -t 15.432145723 -s 0 -d 3 -p cbr -e 532 -c 2 -a 0 -i 31 -k RTR
+ -t 15.437714723 -s 3 -d 7 -p cbr -e 532 -c 2 -a 0 -i 31 -k RTR 
- -t 15.437714723 -s 3 -d 7 -p cbr -e 532 -c 2 -a 0 -i 31 -k RTR
h -t 15.437714723 -s 3 -d 7 -p cbr -e 532 -c 2 -a 0 -i 31 -k RTR
+ -t 15.443468959 -s 7 -d 13 -p cbr -e 532 -c 2 -a 0 -i 31 -k RTR 
- -t 15.443468959 -s 7 -d 13 -p cbr -e 532 -c 2 -a 0 -i 31 -k RTR
h -t 15.443468959 -s 7 -d 13 -p cbr -e 532 -c 2 -a 0 -i 31 -k RTR
+ -t 15.449402959 -s 13 -d 18 -p cbr -e 532 -c 2 -a 0 -i 31 -k RTR 
- -t 15.449402959 -s 13 -d 18 -p cbr -e 532 -c 2 -a 0 -i 31 -k RTR
h -t 15.449402959 -s 13 -d 18 -p cbr -e 532 -c 2 -a 0 -i 31 -k RTR
r -t 15.455676373 -s 18 -d 18 -p cbr -e 512 -c 2 -a 0 -i 31 -k AGT
+ -t 15.489894779 -s 3 -d -1 -p cbr -e 512 -c 2 -a 0 -i 32 -k AGT 
- -t 15.489894779 -s 3 -d -1 -p cbr -e 512 -c 2 -a 0 -i 32 -k AGT
h -t 15.489894779 -s 3 -d -1 -p cbr -e 512 -c 2 -a 0 -i 32 -k AGT
+ -t 15.489894779 -s 3 -d 7 -p cbr -e 532 -c 2 -a 0 -i 32 -k RTR 
- -t 15.489894779 -s 3 -d 7 -p cbr -e 532 -c 2 -a 0 -i 32 -k RTR
h -t 15.489894779 -s 3 -d 7 -p cbr -e 532 -c 2 -a 0 -i 32 -k RTR
+ -t 15.495525015 -s 7 -d 13 -p cbr -e 532 -c 2 -a 0 -i 32 -k RTR 
- -t 15.495525015 -s 7 -d 13 -p cbr -e 532 -c 2 -a 0 -i 32 -k RTR
h -t 15.495525015 -s 7 -d 13 -p cbr -e 532 -c 2 -a 0 -i 32 -k RTR
+ -t 15.501239015 -s 13 -d 18 -p cbr -e 532 -c 2 -a 0 -i 32 -k RTR 
- -t 15.501239015 -s 13 -d 18 -p cbr -e 532 -c 2 -a 0 -i 32 -k RTR
h -t 15.501239015 -s 13 -d 18 -p cbr -e 532 -c 2 -a 0 -i 32 -k RTR
r -t 15.507232429 -s 18 -d 18 -p cbr -e 512 -c 2 -a 0 -i 32 -k AGT
+ -t 15.519532501 -s 7 -d -1 -p cbr -e 512 -c 2 -a 0 -i 33 -k AGT 
- -t 15.519532501 -s 7 -d -1 -p cbr -e 512 -c 2 -a 0 -i 33 -k AGT
h -t 15.519532501 -s 7 -d -1 -p cbr -e 512 -c 2 -a 0 -i 33 -k AGT
+ -t 15.519532501 -s 7 -d 11 -p cbr -e 532 -c 2 -a 0 -i 33 -k RTR 
- -t 15.519532501 -s 7 -d 11 -p cbr -e 532 -c 2 -a 0 -i 33 -k RTR
h -t 15.519532501 -s 7 -d 11 -p cbr -e 532 -c 2 -a 0 -i 33 -k RTR
r -t 15.525462737 -s 11 -d 11 -p cbr -e 512 -c 2 -a 0 -i 33 -k AGT
+ -t 15.557209219 -s 0 -d -1 -p cbr -e 512 -c 2 -a 0 -i 34 -k AGT 
- -t 15.557209219 -s 0 -d -1 -p cbr -e 512 -c 2 -a 0 -i 34 -k AGT
h -t 15.557209219 -s 0 -d -1 -p cbr -e 512 -c 2 -a 0 -i 34 -k AGT
+ -t 15.557209219 -s 0 -d 3 -p cbr -e 532 -c 2 -a 0 -i 34 -k RTR 
- -t 15.557209219 -s 0 -d 3 -p cbr -e 532 -c 2 -a 0 -i 34 -k RTR
h -t 15.557209219 -s 0 -d 3 -p cbr -e 532 -c 2 -a 0 -i 34 -k RTR
+ -t 15.562718219 -s 3 -d 7 -p cbr -e 532 -c 2 -a 0 -i 34 -k RTR 
- -t 15.562718219 -s 3 -d 7 -p cbr -e 532 -c 2 -a 0 -i 34 -k RTR
h -t 15.562718219 -s 3 -d 7 -p cbr -e 532 -c 2 -a 0 -i 34 -k RTR
+ -t 15.568632455 -s 7 -d 13 -p cbr -e 532 -c 2 -a 0 -i 34 -k RTR 
- -t 15.568632455 -s 7 -d 13 -p cbr -e 532 -c 2 -a 0 -i 34 -k RTR
h -t 15.568632455 -s 7 -d 13 -p cbr -e 532 -c 2 -a 0 -i 34 -k RTR
+ -t 15.574666455 -s 13 -d 18 -p cbr -e 532 -c 2 -a 0 -i 34 -k RTR 
- -t 15.574666455 -s 13 -d 18 -p cbr -e 532 -c 2 -a 0 -i 34 -k RTR
h -t 15.574666455 -s 13 -d 18 -p cbr -e 532 -c 2 -a 0 -i 34 -k RTR
r -t 15.580499869 -s 18 -d 18 -p cbr -e 512 -c 2 -a 0 -i 34 -k AGT
+ -t 15.598684386 -s 3 -d -1 -p cbr -e 512 -c 2 -a 0 -i 35 -k AGT 
- -t 15.598684386 -s 3 -d -1 -p cbr -e 512 -c 2 -a 0 -i 35 -k AGT
h -t 15.598684386 -s 3 -d -1 -p cbr -e 512 -c 2 -a 0 -i 35 -k AGT
+ -t 15.598684386 -s 3 -d 7 -p cbr -e 532 -c 2 -a 0 -i 35 -k RTR 
- -t 15.598684386 -s 3 -d 7 -p cbr -e 532 -c 2 -a 0 -i 35 -k RTR
h -t 15.598684386 -s 3 -d 7 -p cbr -e 532 -c 2 -a 0 -i 35 -k RTR
+ -t 15.604614622 -s 7 -d 13 -p cbr -e 532 -c 2 -a 0 -i 35 -k RTR 
- -t 15.604614622 -s 7 -d 13 -p cbr -e 532 -c 2 -a 0 -i 35 -k RTR
h -t 15.604614622 -s 7 -d 13 -p cbr -e 532 -c 2 -a 0 -i 35 -k RTR
+ -t 15.610568622 -s 13 -d 18 -p cbr -e 532 -c 2 -a 0 -i 35 -k RTR 
- -t 15.610568622 -s 13 -d 18 -p cbr -e 532 -c 2 -a 0 -i 35 -k RTR
h -t 15.610568622 -s 13 -d 18 -p cbr -e 532 -c 2 -a 0 -i 35 -k RTR
r -t 15.616282037 -s 18 -d 18 -p cbr -e 512 -c 2 -a 0 -i 35 -k AGT
+ -t 15.620196821 -s 0 -d -1 -p cbr -e 512 -c 2 -a 0 -i 36 -k AGT 
- -t 15.620196821 -s 0 -d -1 -p cbr -e 512 -c 2 -a 0 -i 36 -k AGT
h -t 15.620196821 -s 0 -d -1 -p cbr -e 512 -c 2 -a 0 -i 36 -k AGT
+ -t 15.620196821 -s 0 -d 3 -p cbr -e 532 -c 2 -a 0 -i 36 -k RTR 
- -t 15.620196821 -s 0 -d 3 -p cbr -e 532 -c 2 -a 0 -i 36 -k RTR
h -t 15.620196821 -s 0 -d 3 -p cbr -e 532 -c 2 -a 0 -i 36 -k RTR
+ -t 15.626085821 -s 3 -d 7 -p cbr -e 532 -c 2 -a 0 -i 36 -k RTR 
- -t 15.626085821 -s 3 -d 7 -p cbr -e 532 -c 2 -a 0 -i 36 -k RTR
h -t 15.626085821 -s 3 -d 7 -p cbr -e 532 -c 2 -a 0 -i 36 -k RTR
+ -t 15.632280057 -s 7 -d 13 -p cbr -e 532 -c 2 -a 0 -i 36 -k RTR 
- -t 15.632280057 -s 7 -d 13 -p cbr -e 532 -c 2 -a 0 -i 36 -k RTR
h -t 15.632280057 -s 7 -d 13 -p cbr -e 532 -c 2 -a 0 -i 36 -k RTR
+ -t 15.638354057 -s 13 -d 18 -p cbr -e 532 -c 2 -a 0 -i 36 -k RTR 
- -t 15.638354057 -s 13 -d 18 -p cbr -e 532 -c 2 -a 0 -i 36 -k RTR
h -t 15.638354057 -s 13 -d 18 -p cbr -e 532 -c 2 -a 0 -i 36 -k RTR
+ -t 15.639568975 -s 7 -d -1 -p cbr -e 512 -c 2 -a 0 -i 37 -k AGT 
- -t 15.639568975 -s 7 -d -1 -p cbr -e 512 -c 2 -a 0 -i 37 -k AGT
h -t 15.639568975 -s 7 -d -1 -p cbr -e 512 -c 2 -a 0 -i 37 -k AGT
+ -t 15.639568975 -s 7 -d 11 -p cbr -e 532 -c 2 -a 0 -i 37 -k RTR 
- -t 15.639568975 -s 7 -d 11 -p cbr -e 532 -c 2 -a 0 -i 37 -k RTR
h -t 15.639568975 -s 7 -d 11 -p cbr -e 532 -c 2 -a 0 -i 37 -k RTR
r -t 15.644647472 -s 18 -d 18 -p cbr -e 512 -c 2 -a 0 -i 36 -k AGT
r -t 15.650746762 -s 11 -d 11 -p cbr -e 512 -c 2 -a 0 -i 37 -k AGT
+ -t 15.681150976 -s 3 -d -1 -p cbr -e 512 -c 2 -a 0 -i 38 -k AGT 
- -t 15.681150976 -s 3 -d -1 -p cbr -e 512 -c 2 -a 0 -i 38 -k AGT
h -t 15.681150976 -s 3 -d -1 -p cbr -e 512 -c 2 -a 0 -i 38 -k AGT
+ -t 15.681150976 -s 3 -d 7 -p cbr -e 532 -c 2 -a 0 -i 38 -k RTR 