s 0.000000000 _0_ RTR  --- 0 WCETT 284 [0 0 0 0] ------- [0:255 -1:255 1 0] [0x1 1 [0 2] 4.000000 ] (HELLO)
s 0.000000000 _1_ RTR  --- 0 WCETT 284 [0 0 0 0] ------- [1:255 -1:255 1 0] [0x1 1 [1 2] 4.000000 ] (HELLO)
s 0.000000000 _2_ RTR  --- 0 WCETT 284 [0 0 0 0] ------- [2:255 -1:255 1 0] [0x1 1 [2 2] 4.000000 ] (HELLO)
s 0.000000000 _3_ RTR  --- 0 WCETT 284 [0 0 0 0] ------- [3:255 -1:255 1 0] [0x1 1 [3 2] 4.000000 ] (HELLO)
s 0.000000000 _4_ RTR  --- 0 WCETT 284 [0 0 0 0] ------- [4:255 -1:255 1 0] [0x1 1 [4 2] 4.000000 ] (HELLO)
s 0.000000000 _5_ RTR  --- 0 WCETT 284 [0 0 0 0] ------- [5:255 -1:255 1 0] [0x1 1 [5 2] 4.000000 ] (HELLO)
s 0.000000000 _6_ RTR  --- 0 WCETT 284 [0 0 0 0] ------- [6:255 -1:255 1 0] [0x1 1 [6 2] 4.000000 ] (HELLO)
s 0.000000000 _7_ RTR  --- 0 WCETT 284 [0 0 0 0] ------- [7:255 -1:255 1 0] [0x1 1 [7 2] 4.000000 ] (HELLO)
s 0.000000000 _8_ RTR  --- 0 WCETT 284 [0 0 0 0] ------- [8:255 -1:255 1 0] [0x1 1 [8 2] 4.000000 ] (HELLO)
s 0.000000000 _9_ RTR  --- 0 WCETT 284 [0 0 0 0] ------- [9:255 -1:255 1 0] [0x1 1 [9 2] 4.000000 ] (HELLO)
s 0.000000000 _10_ RTR  --- 0 WCETT 284 [0 0 0 0] ------- [10:255 -1:255 1 0] [0x1 1 [10 2] 4.000000 ] (HELLO)
s 0.000000000 _11_ RTR  --- 0 WCETT 284 [0 0 0 0] ------- [11:255 -1:255 1 0] [0x1 1 [11 2] 4.000000 ] (HELLO)
s 0.000000000 _12_ RTR  --- 0 WCETT 284 [0 0 0 0] ------- [12:255 -1:255 1 0] [0x1 1 [12 2] 4.000000 ] (HELLO)
s 0.000000000 _13_ RTR  --- 0 WCETT 284 [0 0 0 0] ------- [13:255 -1:255 1 0] [0x1 1 [13 2] 4.000000 ] (HELLO)
s 0.000000000 _14_ RTR  --- 0 WCETT 284 [0 0 0 0] ------- [14:255 -1:255 1 0] [0x1 1 [14 2] 4.000000 ] (HELLO)
s 0.000000000 _15_ RTR  --- 0 WCETT 284 [0 0 0 0] ------- [15:255 -1:255 1 0] [0x1 1 [15 2] 4.000000 ] (HELLO)
s 0.000000000 _16_ RTR  --- 0 WCETT 284 [0 0 0 0] ------- [16:255 -1:255 1 0] [0x1 1 [16 2] 4.000000 ] (HELLO)
s 0.000000000 _17_ RTR  --- 0 WCETT 284 [0 0 0 0] ------- [17:255 -1:255 1 0] [0x1 1 [17 2] 4.000000 ] (HELLO)
s 0.000000000 _18_ RTR  --- 0 WCETT 284 [0 0 0 0] ------- [18:255 -1:255 1 0] [0x1 1 [18 2] 4.000000 ] (HELLO)
r 0.002788333 _1_ RTR  --- 0 WCETT 284 [0 ffffffff 4 800] ------- [4:255 -1:255 1 0] [0x1 1 [4 2] 4.000000 ] (HELLO)
r 0.002788333 _7_ RTR  --- 0 WCETT 284 [0 ffffffff 4 800] ------- [4:255 -1:255 1 0] [0x1 1 [4 2] 4.000000 ] (HELLO)
r 0.002788667 _3_ RTR  --- 0 WCETT 284 [0 ffffffff 4 800] ------- [4:255 -1:255 1 0] [0x1 1 [4 2] 4.000000 ] (HELLO)
r 0.002788667 _10_ RTR  --- 0 WCETT 284 [0 ffffffff 4 800] ------- [4:255 -1:255 1 0] [0x1 1 [4 2] 4.000000 ] (HELLO)
r 0.002788667 _5_ RTR  --- 0 WCETT 284 [0 ffffffff 4 800] ------- [4:255 -1:255 1 0] [0x1 1 [4 2] 4.000000 ] (HELLO)
r 0.002788745 _6_ RTR  --- 0 WCETT 284 [0 ffffffff 4 800] ------- [4:255 -1:255 1 0] [0x1 1 [4 2] 4.000000 ] (HELLO)
r 0.002788745 _0_ RTR  --- 0 WCETT 284 [0 ffffffff 4 800] ------- [4:255 -1:255 1 0] [0x1 1 [4 2] 4.000000 ] (HELLO)
r 0.002788745 _2_ RTR  --- 0 WCETT 284 [0 ffffffff 4 800] ------- [4:255 -1:255 1 0] [0x1 1 [4 2] 4.000000 ] (HELLO)
r 0.002788745 _8_ RTR  --- 0 WCETT 284 [0 ffffffff 4 800] ------- [4:255 -1:255 1 0] [0x1 1 [4 2] 4.000000 ] (HELLO)
r 0.005567079 _3_ RTR  --- 0 WCETT 284 [0 ffffffff 0 800] ------- [0:255 -1:255 1 0] [0x1 1 [0 2] 4.000000 ] (HELLO)
r 0.005567412 _6_ RTR  --- 0 WCETT 284 [0 ffffffff 0 800] ------- [0:255 -1:255 1 0] [0x1 1 [0 2] 4.000000 ] (HELLO)
r 0.005567412 _1_ RTR  --- 0 WCETT 284 [0 ffffffff 0 800] ------- [0:255 -1:255 1 0] [0x1 1 [0 2] 4.000000 ] (HELLO)
r 0.005567491 _4_ RTR  --- 0 WCETT 284 [0 ffffffff 0 800] ------- [0:255 -1:255 1 0] [0x1 1 [0 2] 4.000000 ] (HELLO)
r 0.006231708 _17_ RTR  --- 0 WCETT 284 [0 ffffffff 12 800] ------- [18:255 -1:255 1 0] [0x1 1 [18 2] 4.000000 ] (HELLO)
r 0.006231846 _14_ RTR  --- 0 WCETT 284 [0 ffffffff 12 800] ------- [18:255 -1:255 1 0] [0x1 1 [18 2] 4.000000 ] (HELLO)
r 0.008990179 _11_ RTR  --- 0 WCETT 284 [0 ffffffff e 800] ------- [14:255 -1:255 1 0] [0x1 1 [14 2] 4.000000 ] (HELLO)
r 0.008990179 _17_ RTR  --- 0 WCETT 284 [0 ffffffff e 800] ------- [14:255 -1:255 1 0] [0x1 1 [14 2] 4.000000 ] (HELLO)
r 0.008990317 _18_ RTR  --- 0 WCETT 284 [0 ffffffff e 800] ------- [14:255 -1:255 1 0] [0x1 1 [14 2] 4.000000 ] (HELLO)
r 0.008990512 _8_ RTR  --- 0 WCETT 284 [0 ffffffff e 800] ------- [14:255 -1:255 1 0] [0x1 1 [14 2] 4.000000 ] (HELLO)
r 0.008990512 _13_ RTR  --- 0 WCETT 284 [0 ffffffff e 800] ------- [14:255 -1:255 1 0] [0x1 1 [14 2] 4.000000 ] (HELLO)
r 0.008990591 _16_ RTR  --- 0 WCETT 284 [0 ffffffff e 800] ------- [14:255 -1:255 1 0] [0x1 1 [14 2] 4.000000 ] (HELLO)
r 0.008990591 _10_ RTR  --- 0 WCETT 284 [0 ffffffff e 800] ------- [14:255 -1:255 1 0] [0x1 1 [14 2] 4.000000 ] (HELLO)
r 0.011768512 _8_ RTR  --- 0 WCETT 284 [0 ffffffff b 800] ------- [11:255 -1:255 1 0] [0x1 1 [11 2] 4.000000 ] (HELLO)
r 0.011768512 _14_ RTR  --- 0 WCETT 284 [0 ffffffff b 800] ------- [11:255 -1:255 1 0] [0x1 1 [11 2] 4.000000 ] (HELLO)
r 0.011768846 _5_ RTR  --- 0 WCETT 284 [0 ffffffff b 800] ------- [11:255 -1:255 1 0] [0x1 1 [11 2] 4.000000 ] (HELLO)
r 0.011768846 _10_ RTR  --- 0 WCETT 284 [0 ffffffff b 800] ------- [11:255 -1:255 1 0] [0x1 1 [11 2] 4.000000 ] (HELLO)
r 0.011768846 _17_ RTR  --- 0 WCETT 284 [0 ffffffff b 800] ------- [11:255 -1:255 1 0] [0x1 1 [11 2] 4.000000 ] (HELLO)
r 0.011768924 _18_ RTR  --- 0 WCETT 284 [0 ffffffff b 800] ------- [11:255 -1:255 1 0] [0x1 1 [11 2] 4.000000 ] (HELLO)
r 0.011768924 _13_ RTR  --- 0 WCETT 284 [0 ffffffff b 800] ------- [11:255 -1:255 1 0] [0x1 1 [11 2] 4.000000 ] (HELLO)
r 0.011768924 _7_ RTR  --- 0 WCETT 284 [0 ffffffff b 800] ------- [11:255 -1:255 1 0] [0x1 1 [11 2] 4.000000 ] (HELLO)
r 0.014587179 _14_ RTR  --- 0 WCETT 284 [0 ffffffff 11 800] ------- [17:255 -1:255 1 0] [0x1 1 [17 2] 4.000000 ] (HELLO)
r 0.014587179 _18_ RTR  --- 0 WCETT 284 [0 ffffffff 11 800] ------- [17:255 -1:255 1 0] [0x1 1 [17 2] 4.000000 ] (HELLO)
r 0.014587512 _11_ RTR  --- 0 WCETT 284 [0 ffffffff 11 800] ------- [17:255 -1:255 1 0] [0x1 1 [17 2] 4.000000 ] (HELLO)
r 0.014587512 _16_ RTR  --- 0 WCETT 284 [0 ffffffff 11 800] ------- [17:255 -1:255 1 0] [0x1 1 [17 2] 4.000000 ] (HELLO)
r 0.015152003 _0_ RTR  --- 0 WCETT 284 [0 ffffffff 3 800] ------- [3:255 -1:255 1 0] [0x1 1 [3 2] 4.000000 ] (HELLO)
r 0.018295205 _10_ RTR  --- 0 WCETT 284 [0 ffffffff d 800] ------- [13:255 -1:255 1 0] [0x1 1 [13 2] 4.000000 ] (HELLO)
r 0.018295205 _16_ RTR  --- 0 WCETT 284 [0 ffffffff d 800] ------- [13:255 -1:255 1 0] [0x1 1 [13 2] 4.000000 ] (HELLO)
r 0.018295336 _2_ RTR  --- 0 WCETT 284 [0 ffffffff 5 800] ------- [5:255 -1:255 1 0] [0x1 1 [5 2] 4.000000 ] (HELLO)
r 0.018295336 _8_ RTR  --- 0 WCETT 284 [0 ffffffff 5 800] ------- [5:255 -1:255 1 0] [0x1 1 [5 2] 4.000000 ] (HELLO)
r 0.018295343 _18_ RTR  --- 0 WCETT 284 [0 ffffffff d 800] ------- [13:255 -1:255 1 0] [0x1 1 [13 2] 4.000000 ] (HELLO)
r 0.018295538 _12_ RTR  --- 0 WCETT 284 [0 ffffffff d 800] ------- [13:255 -1:255 1 0] [0x1 1 [13 2] 4.000000 ] (HELLO)
r 0.018295617 _15_ RTR  --- 0 WCETT 284 [0 ffffffff d 800] ------- [13:255 -1:255 1 0] [0x1 1 [13 2] 4.000000 ] (HELLO)
r 0.018295617 _9_ RTR  --- 0 WCETT 284 [0 ffffffff d 800] ------- [13:255 -1:255 1 0] [0x1 1 [13 2] 4.000000 ] (HELLO)
r 0.018295617 _17_ RTR  --- 0 WCETT 284 [0 ffffffff d 800] ------- [13:255 -1:255 1 0] [0x1 1 [13 2] 4.000000 ] (HELLO)
r 0.018295749 _1_ RTR  --- 0 WCETT 284 [0 ffffffff 5 800] ------- [5:255 -1:255 1 0] [0x1 1 [5 2] 4.000000 ] (HELLO)
r 0.021233950 _12_ RTR  --- 0 WCETT 284 [0 ffffffff f 800] ------- [15:255 -1:255 1 0] [0x1 1 [15 2] 4.000000 ] (HELLO)
r 0.021234284 _9_ RTR  --- 0 WCETT 284 [0 ffffffff f 800] ------- [15:255 -1:255 1 0] [0x1 1 [15 2] 4.000000 ] (HELLO)
r 0.021234284 _16_ RTR  --- 0 WCETT 284 [0 ffffffff f 800] ------- [15:255 -1:255 1 0] [0x1 1 [15 2] 4.000000 ] (HELLO)
r 0.021234362 _13_ RTR  --- 0 WCETT 284 [0 ffffffff f 800] ------- [15:255 -1:255 1 0] [0x1 1 [15 2] 4.000000 ] (HELLO)
r 0.021618696 _5_ RTR  --- 0 WCETT 284 [0 ffffffff 2 800] ------- [2:255 -1:255 1 0] [0x1 1 [2 2] 4.000000 ] (HELLO)
r 0.024472284 _9_ RTR  --- 0 WCETT 284 [0 ffffffff c 800] ------- [12:255 -1:255 1 0] [0x1 1 [12 2] 4.000000 ] (HELLO)
r 0.024472284 _15_ RTR  --- 0 WCETT 284 [0 ffffffff c 800] ------- [12:255 -1:255 1 0] [0x1 1 [12 2] 4.000000 ] (HELLO)
r 0.024472617 _6_ RTR  --- 0 WCETT 284 [0 ffffffff c 800] ------- [12:255 -1:255 1 0] [0x1 1 [12 2] 4.000000 ] (HELLO)
r 0.024472617 _13_ RTR  --- 0 WCETT 284 [0 ffffffff c 800] ------- [12:255 -1:255 1 0] [0x1 1 [12 2] 4.000000 ] (HELLO)
r 0.024472696 _10_ RTR  --- 0 WCETT 284 [0 ffffffff c 800] ------- [12:255 -1:255 1 0] [0x1 1 [12 2] 4.000000 ] (HELLO)
r 0.024472696 _16_ RTR  --- 0 WCETT 284 [0 ffffffff c 800] ------- [12:255 -1:255 1 0] [0x1 1 [12 2] 4.000000 ] (HELLO)
r 0.027251029 _7_ RTR  --- 0 WCETT 284 [0 ffffffff a 800] ------- [10:255 -1:255 1 0] [0x1 1 [10 2] 4.000000 ] (HELLO)
r 0.027251029 _13_ RTR  --- 0 WCETT 284 [0 ffffffff a 800] ------- [10:255 -1:255 1 0] [0x1 1 [10 2] 4.000000 ] (HELLO)
r 0.027251362 _4_ RTR  --- 0 WCETT 284 [0 ffffffff a 800] ------- [10:255 -1:255 1 0] [0x1 1 [10 2] 4.000000 ] (HELLO)
r 0.027251362 _9_ RTR  --- 0 WCETT 284 [0 ffffffff a 800] ------- [10:255 -1:255 1 0] [0x1 1 [10 2] 4.000000 ] (HELLO)
r 0.027251362 _16_ RTR  --- 0 WCETT 284 [0 ffffffff a 800] ------- [10:255 -1:255 1 0] [0x1 1 [10 2] 4.000000 ] (HELLO)
r 0.027251362 _11_ RTR  --- 0 WCETT 284 [0 ffffffff a 800] ------- [10:255 -1:255 1 0] [0x1 1 [10 2] 4.000000 ] (HELLO)
r 0.027251441 _12_ RTR  --- 0 WCETT 284 [0 ffffffff a 800] ------- [10:255 -1:255 1 0] [0x1 1 [10 2] 4.000000 ] (HELLO)
r 0.027251441 _6_ RTR  --- 0 WCETT 284 [0 ffffffff a 800] ------- [10:255 -1:255 1 0] [0x1 1 [10 2] 4.000000 ] (HELLO)
r 0.027251441 _18_ RTR  --- 0 WCETT 284 [0 ffffffff a 800] ------- [10:255 -1:255 1 0] [0x1 1 [10 2] 4.000000 ] (HELLO)
r 0.027251441 _8_ RTR  --- 0 WCETT 284 [0 ffffffff a 800] ------- [10:255 -1:255 1 0] [0x1 1 [10 2] 4.000000 ] (HELLO)
r 0.027251441 _14_ RTR  --- 0 WCETT 284 [0 ffffffff a 800] ------- [10:255 -1:255 1 0] [0x1 1 [10 2] 4.000000 ] (HELLO)
r 0.030029696 _13_ RTR  --- 0 WCETT 284 [0 ffffffff 10 800] ------- [16:255 -1:255 1 0] [0x1 1 [16 2] 4.000000 ] (HELLO)
r 0.030029696 _18_ RTR  --- 0 WCETT 284 [0 ffffffff 10 800] ------- [16:255 -1:255 1 0] [0x1 1 [16 2] 4.000000 ] (HELLO)
r 0.030030029 _10_ RTR  --- 0 WCETT 284 [0 ffffffff 10 800] ------- [16:255 -1:255 1 0] [0x1 1 [16 2] 4.000000 ] (HELLO)
r 0.030030029 _15_ RTR  --- 0 WCETT 284 [0 ffffffff 10 800] ------- [16:255 -1:255 1 0] [0x1 1 [16 2] 4.000000 ] (HELLO)
r 0.030030029 _17_ RTR  --- 0 WCETT 284 [0 ffffffff 10 800] ------- [16:255 -1:255 1 0] [0x1 1 [16 2] 4.000000 ] (HELLO)
r 0.030030108 _12_ RTR  --- 0 WCETT 284 [0 ffffffff 10 800] ------- [16:255 -1:255 1 0] [0x1 1 [16 2] 4.000000 ] (HELLO)
r 0.030030108 _14_ RTR  --- 0 WCETT 284 [0 ffffffff 10 800] ------- [16:255 -1:255 1 0] [0x1 1 [16 2] 4.000000 ] (HELLO)
r 0.033172696 _4_ RTR  --- 0 WCETT 284 [0 ffffffff 7 800] ------- [7:255 -1:255 1 0] [0x1 1 [7 2] 4.000000 ] (HELLO)
r 0.033172696 _10_ RTR  --- 0 WCETT 284 [0 ffffffff 7 800] ------- [7:255 -1:255 1 0] [0x1 1 [7 2] 4.000000 ] (HELLO)
r 0.033172898 _3_ RTR  --- 0 WCETT 284 [0 ffffffff 6 800] ------- [6:255 -1:255 1 0] [0x1 1 [6 2] 4.000000 ] (HELLO)
r 0.033172898 _9_ RTR  --- 0 WCETT 284 [0 ffffffff 6 800] ------- [6:255 -1:255 1 0] [0x1 1 [6 2] 4.000000 ] (HELLO)
r 0.033173029 _6_ RTR  --- 0 WCETT 284 [0 ffffffff 7 800] ------- [7:255 -1:255 1 0] [0x1 1 [7 2] 4.000000 ] (HELLO)
r 0.033173029 _8_ RTR  --- 0 WCETT 284 [0 ffffffff 7 800] ------- [7:255 -1:255 1 0] [0x1 1 [7 2] 4.000000 ] (HELLO)
r 0.033173108 _5_ RTR  --- 0 WCETT 284 [0 ffffffff 7 800] ------- [7:255 -1:255 1 0] [0x1 1 [7 2] 4.000000 ] (HELLO)
r 0.033173108 _11_ RTR  --- 0 WCETT 284 [0 ffffffff 7 800] ------- [7:255 -1:255 1 0] [0x1 1 [7 2] 4.000000 ] (HELLO)
r 0.033173231 _7_ RTR  --- 0 WCETT 284 [0 ffffffff 6 800] ------- [6:255 -1:255 1 0] [0x1 1 [6 2] 4.000000 ] (HELLO)
r 0.036356231 _5_ RTR  --- 0 WCETT 284 [0 ffffffff 8 800] ------- [8:255 -1:255 1 0] [0x1 1 [8 2] 4.000000 ] (HELLO)
r 0.036356231 _11_ RTR  --- 0 WCETT 284 [0 ffffffff 8 800] ------- [8:255 -1:255 1 0] [0x1 1 [8 2] 4.000000 ] (HELLO)
r 0.036356564 _2_ RTR  --- 0 WCETT 284 [0 ffffffff 8 800] ------- [8:255 -1:255 1 0] [0x1 1 [8 2] 4.000000 ] (HELLO)
r 0.036356564 _7_ RTR  --- 0 WCETT 284 [0 ffffffff 8 800] ------- [8:255 -1:255 1 0] [0x1 1 [8 2] 4.000000 ] (HELLO)
r 0.036356564 _14_ RTR  --- 0 WCETT 284 [0 ffffffff 8 800] ------- [8:255 -1:255 1 0] [0x1 1 [8 2] 4.000000 ] (HELLO)
r 0.036356643 _10_ RTR  --- 0 WCETT 284 [0 ffffffff 8 800] ------- [8:255 -1:255 1 0] [0x1 1 [8 2] 4.000000 ] (HELLO)
r 0.036356643 _4_ RTR  --- 0 WCETT 284 [0 ffffffff 8 800] ------- [8:255 -1:255 1 0] [0x1 1 [8 2] 4.000000 ] (HELLO)
r 0.039479605 _6_ RTR  --- 0 WCETT 284 [0 ffffffff 9 800] ------- [9:255 -1:255 1 0] [0x1 1 [9 2] 4.000000 ] (HELLO)
r 0.039479605 _12_ RTR  --- 0 WCETT 284 [0 ffffffff 9 800] ------- [9:255 -1:255 1 0] [0x1 1 [9 2] 4.000000 ] (HELLO)
r 0.039479939 _3_ RTR  --- 0 WCETT 284 [0 ffffffff 9 800] ------- [9:255 -1:255 1 0] [0x1 1 [9 2] 4.000000 ] (HELLO)
r 0.039479939 _15_ RTR  --- 0 WCETT 284 [0 ffffffff 9 800] ------- [9:255 -1:255 1 0] [0x1 1 [9 2] 4.000000 ] (HELLO)
r 0.039479939 _10_ RTR  --- 0 WCETT 284 [0 ffffffff 9 800] ------- [9:255 -1:255 1 0] [0x1 1 [9 2] 4.000000 ] (HELLO)
r 0.039480017 _7_ RTR  --- 0 WCETT 284 [0 ffffffff 9 800] ------- [9:255 -1:255 1 0] [0x1 1 [9 2] 4.000000 ] (HELLO)
r 0.039480017 _13_ RTR  --- 0 WCETT 284 [0 ffffffff 9 800] ------- [9:255 -1:255 1 0] [0x1 1 [9 2] 4.000000 ] (HELLO)
r 0.042942807 _4_ RTR  --- 0 WCETT 284 [0 ffffffff 1 800] ------- [1:255 -1:255 1 0] [0x1 1 [1 2] 4.000000 ] (HELLO)
r 0.042943140 _0_ RTR  --- 0 WCETT 284 [0 ffffffff 1 800] ------- [1:255 -1:255 1 0] [0x1 1 [1 2] 4.000000 ] (HELLO)
r 0.042943140 _7_ RTR  --- 0 WCETT 284 [0 ffffffff 1 800] ------- [1:255 -1:255 1 0] [0x1 1 [1 2] 4.000000 ] (HELLO)
r 0.042943140 _2_ RTR  --- 0 WCETT 284 [0 ffffffff 1 800] ------- [1:255 -1:255 1 0] [0x1 1 [1 2] 4.000000 ] (HELLO)
r 0.042943219 _3_ RTR  --- 0 WCETT 284 [0 ffffffff 1 800] ------- [1:255 -1:255 1 0] [0x1 1 [1 2] 4.000000 ] (HELLO)
r 0.042943219 _5_ RTR  --- 0 WCETT 284 [0 ffffffff 1 800] ------- [1:255 -1:255 1 0] [0x1 1 [1 2] 4.000000 ] (HELLO)
s 1.000000000 _0_ RTR  --- 0 WCETT 284 [0 0 0 0] ------- [0:255 -1:255 1 0] [0x1 1 [0 8] 4.000000 ] (HELLO)
s 1.000000000 _1_ RTR  --- 0 WCETT 284 [0 0 0 0] ------- [1:255 -1:255 1 0] [0x1 1 [1 8] 4.000000 ] (HELLO)
s 1.000000000 _2_ RTR  --- 0 WCETT 284 [0 0 0 0] ------- [2:255 -1:255 1 0] [0x1 1 [2 10] 4.000000 ] (HELLO)
s 1.000000000 _3_ RTR  --- 0 WCETT 284 [0 0 0 0] ------- [3:255 -1:255 1 0] [0x1 1 [3 12] 4.000000 ] (HELLO)
s 1.000000000 _4_ RTR  --- 0 WCETT 284 [0 0 0 0] ------- [4:255 -1:255 1 0] [0x1 1 [4 12] 4.000000 ] (HELLO)
s 1.000000000 _5_ RTR  --- 0 WCETT 284 [0 0 0 0] ------- [5:255 -1:255 1 0] [0x1 1 [5 14] 4.000000 ] (HELLO)
s 1.000000000 _6_ RTR  --- 0 WCETT 284 [0 0 0 0] ------- [6:255 -1:255 1 0] [0x1 1 [6 14] 4.000000 ] (HELLO)
s 1.000000000 _7_ RTR  --- 0 WCETT 284 [0 0 0 0] ------- [7:255 -1:255 1 0] [0x1 1 [7 16] 4.000000 ] (HELLO)
s 1.000000000 _8_ RTR  --- 0 WCETT 284 [0 0 0 0] ------- [8:255 -1:255 1 0] [0x1 1 [8 14] 4.000000 ] (HELLO)
s 1.000000000 _9_ RTR  --- 0 WCETT 284 [0 0 0 0] ------- [9:255 -1:255 1 0] [0x1 1 [9 12] 4.000000 ] (HELLO)
s 1.000000000 _10_ RTR  --- 0 WCETT 284 [0 0 0 0] ------- [10:255 -1:255 1 0] [0x1 1 [10 20] 4.000000 ] (HELLO)
s 1.000000000 _11_ RTR  --- 0 WCETT 284 [0 0 0 0] ------- [11:255 -1:255 1 0] [0x1 1 [11 12] 4.000000 ] (HELLO)
s 1.000000000 _12_ RTR  --- 0 WCETT 284 [0 0 0 0] ------- [12:255 -1:255 1 0] [0x1 1 [12 12] 4.000000 ] (HELLO)
s 1.000000000 _13_ RTR  --- 0 WCETT 284 [0 0 0 0] ------- [13:255 -1:255 1 0] [0x1 1 [13 16] 4.000000 ] (HELLO)
s 1.000000000 _14_ RTR  --- 0 WCETT 284 [0 0 0 0] ------- [14:255 -1:255 1 0] [0x1 1 [14 14] 4.000000 ] (HELLO)
s 1.000000000 _15_ RTR  --- 0 WCETT 284 [0 0 0 0] ------- [15:255 -1:255 1 0] [0x1 1 [15 10] 4.000000 ] (HELLO)
s 1.000000000 _16_ RTR  --- 0 WCETT 284 [0 0 0 0] ------- [16:255 -1:255 1 0] [0x1 1 [16 14] 4.000000 ] (HELLO)
s 1.000000000 _17_ RTR  --- 0 WCETT 284 [0 0 0 0] ------- [17:255 -1:255 1 0] [0x1 1 [17 12] 4.000000 ] (HELLO)
s 1.000000000 _18_ RTR  --- 0 WCETT 284 [0 0 0 0] ------- [18:255 -1:255 1 0] [0x1 1 [18 14] 4.000000 ] (HELLO)
r 1.002788333 _9_ RTR  --- 0 WCETT 284 [0 ffffffff c 800] ------- [12:255 -1:255 1 0] [0x1 1 [12 12] 4.000000 ] (HELLO)
r 1.002788333 _15_ RTR  --- 0 WCETT 284 [0 ffffffff c 800] ------- [12:255 -1:255 1 0] [0x1 1 [12 12] 4.000000 ] (HELLO)
r 1.002788667 _6_ RTR  --- 0 WCETT 284 [0 ffffffff c 800] ------- [12:255 -1:255 1 0] [0x1 1 [12 12] 4.000000 ] (HELLO)
r 1.002788667 _13_ RTR  --- 0 WCETT 284 [0 ffffffff c 800] ------- [12:255 -1:255 1 0] [0x1 1 [12 12] 4.000000 ] (HELLO)
r 1.002788745 _16_ RTR  --- 0 WCETT 284 [0 ffffffff c 800] ------- [12:255 -1:255 1 0] [0x1 1 [12 12] 4.000000 ] (HELLO)
r 1.005686667 _12_ RTR  --- 0 WCETT 284 [0 ffffffff f 800] ------- [15:255 -1:255 1 0] [0x1 1 [15 10] 4.000000 ] (HELLO)
r 1.005687000 _9_ RTR  --- 0 WCETT 284 [0 ffffffff f 800] ------- [15:255 -1:255 1 0] [0x1 1 [15 10] 4.000000 ] (HELLO)
r 1.005687000 _16_ RTR  --- 0 WCETT 284 [0 ffffffff f 800] ------- [15:255 -1:255 1 0] [0x1 1 [15 10] 4.000000 ] (HELLO)
r 1.006210667 _2_ RTR  --- 0 WCETT 284 [0 ffffffff 5 800] ------- [5:255 -1:255 1 0] [0x1 1 [5 14] 4.000000 ] (HELLO)
r 1.009373333 _1_ RTR  --- 0 WCETT 284 [0 ffffffff 4 800] ------- [4:255 -1:255 1 0] [0x1 1 [4 12] 4.000000 ] (HELLO)
r 1.009373333 _7_ RTR  --- 0 WCETT 284 [0 ffffffff 4 800] ------- [4:255 -1:255 1 0] [0x1 1 [4 12] 4.000000 ] (HELLO)
r 1.009373667 _3_ RTR  --- 0 WCETT 284 [0 ffffffff 4 800] ------- [4:255 -1:255 1 0] [0x1 1 [4 12] 4.000000 ] (HELLO)
r 1.009373667 _10_ RTR  --- 0 WCETT 284 [0 ffffffff 4 800] ------- [4:255 -1:255 1 0] [0x1 1 [4 12] 4.000000 ] (HELLO)
r 1.009373667 _5_ RTR  --- 0 WCETT 284 [0 ffffffff 4 800] ------- [4:255 -1:255 1 0] [0x1 1 [4 12] 4.000000 ] (HELLO)
r 1.009373745 _6_ RTR  --- 0 WCETT 284 [0 ffffffff 4 800] ------- [4:255 -1:255 1 0] [0x1 1 [4 12] 4.000000 ] (HELLO)
r 1.009373745 _0_ RTR  --- 0 WCETT 284 [0 ffffffff 4 800] ------- [4:255 -1:255 1 0] [0x1 1 [4 12] 4.000000 ] (HELLO)
r 1.009373745 _2_ RTR  --- 0 WCETT 284 [0 ffffffff 4 800] ------- [4:255 -1:255 1 0] [0x1 1 [4 12] 4.000000 ] (HELLO)
r 1.009373745 _8_ RTR  --- 0 WCETT 284 [0 ffffffff 4 800] ------- [4:255 -1:255 1 0] [0x1 1 [4 12] 4.000000 ] (HELLO)
r 1.012271667 _4_ RTR  --- 0 WCETT 284 [0 ffffffff 1 800] ------- [1:255 -1:255 1 0] [0x1 1 [1 8] 4.000000 ] (HELLO)
r 1.012272000 _0_ RTR  --- 0 WCETT 284 [0 ffffffff 1 800] ------- [1:255 -1:255 1 0] [0x1 1 [1 8] 4.000000 ] (HELLO)
r 1.012272000 _7_ RTR  --- 0 WCETT 284 [0 ffffffff 1 800] ------- [1:255 -1:255 1 0] [0x1 1 [1 8] 4.000000 ] (HELLO)
r 1.012272000 _2_ RTR  --- 0 WCETT 284 [0 ffffffff 1 800] ------- [1:255 -1:255 1 0] [0x1 1 [1 8] 4.000000 ] (HELLO)
r 1.012272079 _3_ RTR  --- 0 WCETT 284 [0 ffffffff 1 800] ------- [1:255 -1:255 1 0] [0x1 1 [1 8] 4.000000 ] (HELLO)
r 1.012272079 _5_ RTR  --- 0 WCETT 284 [0 ffffffff 1 800] ------- [1:255 -1:255 1 0] [0x1 1 [1 8] 4.000000 ] (HELLO)
r 1.015290333 _4_ RTR  --- 0 WCETT 284 [0 ffffffff 7 800] ------- [7:255 -1:255 1 0] [0x1 1 [7 16] 4.000000 ] (HELLO)
r 1.015290333 _10_ RTR  --- 0 WCETT 284 [0 ffffffff 7 800] ------- [7:255 -1:255 1 0] [0x1 1 [7 16] 4.000000 ] (HELLO)
r 1.015290667 _1_ RTR  --- 0 WCETT 284 [0 ffffffff 7 800] ------- [7:255 -1:255 1 0] [0x1 1 [7 16] 4.000000 ] (HELLO)
r 1.015290667 _6_ RTR  --- 0 WCETT 284 [0 ffffffff 7 800] ------- [7:255 -1:255 1 0] [0x1 1 [7 16] 4.000000 ] (HELLO)
r 1.015290667 _13_ RTR  --- 0 WCETT 284 [0 ffffffff 7 800] ------- [7:255 -1:255 1 0] [0x1 1 [7 16] 4.000000 ] (HELLO)
r 1.015290667 _8_ RTR  --- 0 WCETT 284 [0 ffffffff 7 800] ------- [7:255 -1:255 1 0] [0x1 1 [7 16] 4.000000 ] (HELLO)
r 1.015290745 _9_ RTR  --- 0 WCETT 284 [0 ffffffff 7 800] ------- [7:255 -1:255 1 0] [0x1 1 [7 16] 4.000000 ] (HELLO)
r 1.015290745 _3_ RTR  --- 0 WCETT 284 [0 ffffffff 7 800] ------- [7:255 -1:255 1 0] [0x1 1 [7 16] 4.000000 ] (HELLO)
r 1.015290745 _5_ RTR  --- 0 WCETT 284 [0 ffffffff 7 800] ------- [7:255 -1:255 1 0] [0x1 1 [7 16] 4.000000 ] (HELLO)
r 1.015290745 _11_ RTR  --- 0 WCETT 284 [0 ffffffff 7 800] ------- [7:255 -1:255 1 0] [0x1 1 [7 16] 4.000000 ] (HELLO)
r 1.018088667 _7_ RTR  --- 0 WCETT 284 [0 ffffffff a 800] ------- [10:255 -1:255 1 0] [0x1 1 [10 20] 4.000000 ] (HELLO)
r 1.018088667 _13_ RTR  --- 0 WCETT 284 [0 ffffffff a 800] ------- [10:255 -1:255 1 0] [0x1 1 [10 20] 4.000000 ] (HELLO)
r 1.018089000 _9_ RTR  --- 0 WCETT 284 [0 ffffffff a 800] ------- [10:255 -1:255 1 0] [0x1 1 [10 20] 4.000000 ] (HELLO)
r 1.018089000 _16_ RTR  --- 0 WCETT 284 [0 ffffffff a 800] ------- [10:255 -1:255 1 0] [0x1 1 [10 20] 4.000000 ] (HELLO)
r 1.018089000 _5_ RTR  --- 0 WCETT 284 [0 ffffffff 8 800] ------- [8:255 -1:255 1 0] [0x1 1 [8 14] 4.000000 ] (HELLO)
r 1.018089079 _12_ RTR  --- 0 WCETT 284 [0 ffffffff a 800] ------- [10:255 -1:255 1 0] [0x1 1 [10 20] 4.000000 ] (HELLO)
r 1.018089079 _6_ RTR  --- 0 WCETT 284 [0 ffffffff a 800] ------- [10:255 -1:255 1 0] [0x1 1 [10 20] 4.000000 ] (HELLO)
r 1.018089079 _8_ RTR  --- 0 WCETT 284 [0 ffffffff a 800] ------- [10:255 -1:255 1 0] [0x1 1 [10 20] 4.000000 ] (HELLO)
r 1.018089333 _2_ RTR  --- 0 WCETT 284 [0 ffffffff 8 800] ------- [8:255 -1:255 1 0] [0x1 1 [8 14] 4.000000 ] (HELLO)
r 1.018089412 _10_ RTR  --- 0 WCETT 284 [0 ffffffff 8 800] ------- [8:255 -1:255 1 0] [0x1 1 [8 14] 4.000000 ] (HELLO)
r 1.021212000 _14_ RTR  --- 0 WCETT 284 [0 ffffffff 11 800] ------- [17:255 -1:255 1 0] [0x1 1 [17 12] 4.000000 ] (HELLO)
r 1.021212000 _18_ RTR  --- 0 WCETT 284 [0 ffffffff 11 800] ------- [17:255 -1:255 1 0] [0x1 1 [17 12] 4.000000 ] (HELLO)
r 1.021212333 _11_ RTR  --- 0 WCETT 284 [0 ffffffff 11 800] ------- [17:255 -1:255 1 0] [0x1 1 [17 12] 4.000000 ] (HELLO)
r 1.021212333 _16_ RTR  --- 0 WCETT 284 [0 ffffffff 11 800] ------- [17:255 -1:255 1 0] [0x1 1 [17 12] 4.000000 ] (HELLO)
r 1.021212374 _0_ RTR  --- 0 WCETT 284 [0 ffffffff 3 800] ------- [3:255 -1:255 1 0] [0x1 1 [3 12] 4.000000 ] (HELLO)
r 1.021212374 _6_ RTR  --- 0 WCETT 284 [0 ffffffff 3 800] ------- [3:255 -1:255 1 0] [0x1 1 [3 12] 4.000000 ] (HELLO)
r 1.021212491 _3_ RTR  --- 0 WCETT 284 [0 ffffffff 0 800] ------- [0:255 -1:255 1 0] [0x1 1 [0 8] 4.000000 ] (HELLO)
r 1.024355491 _6_ RTR  --- 0 WCETT 284 [0 ffffffff 9 800] ------- [9:255 -1:255 1 0] [0x1 1 [9 12] 4.000000 ] (HELLO)
r 1.024355491 _12_ RTR  --- 0 WCETT 284 [0 ffffffff 9 800] ------- [9:255 -1:255 1 0] [0x1 1 [9 12] 4.000000 ] (HELLO)
r 1.024355667 _3_ RTR  --- 0 WCETT 284 [0 ffffffff 6 800] ------- [6:255 -1:255 1 0] [0x1 1 [6 14] 4.000000 ] (HELLO)
r 1.024355667 _9_ RTR  --- 0 WCETT 284 [0 ffffffff 6 800] ------- [6:255 -1:255 1 0] [0x1 1 [6 14] 4.000000 ] (HELLO)
r 1.027518609 _10_ RTR  --- 0 WCETT 284 [0 ffffffff d 800] ------- [13:255 -1:255 1 0] [0x1 1 [13 16] 4.000000 ] (HELLO)
r 1.027518609 _16_ RTR  --- 0 WCETT 284 [0 ffffffff d 800] ------- [13:255 -1:255 1 0] [0x1 1 [13 16] 4.000000 ] (HELLO)
r 1.027518748 _18_ RTR  --- 0 WCETT 284 [0 ffffffff d 800] ------- [13:255 -1:255 1 0] [0x1 1 [13 16] 4.000000 ] (HELLO)
r 1.027518943 _7_ RTR  --- 0 WCETT 284 [0 ffffffff d 800] ------- [13:255 -1:255 1 0] [0x1 1 [13 16] 4.000000 ] (HELLO)
r 1.027518943 _12_ RTR  --- 0 WCETT 284 [0 ffffffff d 800] ------- [13:255 -1:255 1 0] [0x1 1 [13 16] 4.000000 ] (HELLO)
r 1.027518943 _14_ RTR  --- 0 WCETT 284 [0 ffffffff d 800] ------- [13:255 -1:255 1 0] [0x1 1 [13 16] 4.000000 ] (HELLO)
r 1.027519021 _15_ RTR  --- 0 WCETT 284 [0 ffffffff d 800] ------- [13:255 -1:255 1 0] [0x1 1 [13 16] 4.000000 ] (HELLO)
r 1.027519021 _9_ RTR  --- 0 WCETT 284 [0 ffffffff d 800] ------- [13:255 -1:255 1 0] [0x1 1 [13 16] 4.000000 ] (HELLO)
r 1.027519021 _11_ RTR  --- 0 WCETT 284 [0 ffffffff d 800] ------- [13:255 -1:255 1 0] [0x1 1 [13 16] 4.000000 ] (HELLO)
r 1.027519021 _17_ RTR  --- 0 WCETT 284 [0 ffffffff d 800] ------- [13:255 -1:255 1 0] [0x1 1 [13 16] 4.000000 ] (HELLO)
r 1.030296943 _13_ RTR  --- 0 WCETT 284 [0 ffffffff 10 800] ------- [16:255 -1:255 1 0] [0x1 1 [16 14] 4.000000 ] (HELLO)
r 1.030296943 _18_ RTR  --- 0 WCETT 284 [0 ffffffff 10 800] ------- [16:255 -1:255 1 0] [0x1 1 [16 14] 4.000000 ] (HELLO)
r 1.030297276 _10_ RTR  --- 0 WCETT 284 [0 ffffffff 10 800] ------- [16:255 -1:255 1 0] [0x1 1 [16 14] 4.000000 ] (HELLO)
r 1.030297276 _15_ RTR  --- 0 WCETT 284 [0 ffffffff 10 800] ------- [16:255 -1:255 1 0] [0x1 1 [16 14] 4.000000 ] (HELLO)
r 1.030297276 _17_ RTR  --- 0 WCETT 284 [0 ffffffff 10 800] ------- [16:255 -1:255 1 0] [0x1 1 [16 14] 4.000000 ] (HELLO)
r 1.030297355 _12_ RTR  --- 0 WCETT 284 [0 ffffffff 10 800] ------- [16:255 -1:255 1 0] [0x1 1 [16 14] 4.000000 ] (HELLO)
r 1.030297355 _14_ RTR  --- 0 WCETT 284 [0 ffffffff 10 800] ------- [16:255 -1:255 1 0] [0x1 1 [16 14] 4.000000 ] (HELLO)
r 1.033135276 _16_ RTR  --- 0 WCETT 284 [0 ffffffff 12 800] ------- [18:255 -1:255 1 0] [0x1 1 [18 14] 4.000000 ] (HELLO)
r 1.033135414 _14_ RTR  --- 0 WCETT 284 [0 ffffffff 12 800] ------- [18:255 -1:255 1 0] [0x1 1 [18 14] 4.000000 ] (HELLO)
r 1.033135826 _18_ RTR  --- 0 WCETT 284 [0 ffffffff e 800] ------- [14:255 -1:255 1 0] [0x1 1 [14 14] 4.000000 ] (HELLO)
r 1.036438021 _8_ RTR  --- 0 WCETT 284 [0 ffffffff b 800] ------- [11:255 -1:255 1 0] [0x1 1 [11 12] 4.000000 ] (HELLO)
r 1.036438021 _14_ RTR  --- 0 WCETT 284 [0 ffffffff b 800] ------- [11:255 -1:255 1 0] [0x1 1 [11 12] 4.000000 ] (HELLO)
r 1.036438355 _5_ RTR  --- 0 WCETT 284 [0 ffffffff b 800] ------- [11:255 -1:255 1 0] [0x1 1 [11 12] 4.000000 ] (HELLO)
r 1.036438355 _10_ RTR  --- 0 WCETT 284 [0 ffffffff b 800] ------- [11:255 -1:255 1 0] [0x1 1 [11 12] 4.000000 ] (HELLO)
r 1.036438355 _17_ RTR  --- 0 WCETT 284 [0 ffffffff b 800] ------- [11:255 -1:255 1 0] [0x1 1 [11 12] 4.000000 ] (HELLO)
r 1.036438434 _18_ RTR  --- 0 WCETT 284 [0 ffffffff b 800] ------- [11:255 -1:255 1 0] [0x1 1 [11 12] 4.000000 ] (HELLO)
r 1.036438434 _13_ RTR  --- 0 WCETT 284 [0 ffffffff b 800] ------- [11:255 -1:255 1 0] [0x1 1 [11 12] 4.000000 ] (HELLO)
r 1.036438434 _7_ RTR  --- 0 WCETT 284 [0 ffffffff b 800] ------- [11:255 -1:255 1 0] [0x1 1 [11 12] 4.000000 ] (HELLO)
s 2.000000000 _0_ RTR  --- 0 WCETT 284 [0 0 0 0] ------- [0:255 -1:255 1 0] [0x1 1 [0 8] 4.000000 ] (HELLO)
s 2.000000000 _1_ RTR  --- 0 WCETT 284 [0 0 0 0] ------- [1:255 -1:255 1 0] [0x1 1 [1 10] 4.000000 ] (HELLO)
s 2.000000000 _2_ RTR  --- 0 WCETT 284 [0 0 0 0] ------- [2:255 -1:255 1 0] [0x1 1 [2 10] 4.000000 ] (HELLO)
s 2.000000000 _3_ RTR  --- 0 WCETT 284 [0 0 0 0] ------- [3:255 -1:255 1 0] [0x1 1 [3 14] 4.000000 ] (HELLO)
s 2.000000000 _4_ RTR  --- 0 WCETT 284 [0 0 0 0] ------- [4:255 -1:255 1 0] [0x1 1 [4 12] 4.000000 ] (HELLO)
s 2.000000000 _5_ RTR  --- 0 WCETT 284 [0 0 0 0] ------- [5:255 -1:255 1 0] [0x1 1 [5 14] 4.000000 ] (HELLO)
s 2.000000000 _6_ RTR  --- 0 WCETT 284 [0 0 0 0] ------- [6:255 -1:255 1 0] [0x1 1 [6 16] 4.000000 ] (HELLO)
s 2.000000000 _7_ RTR  --- 0 WCETT 284 [0 0 0 0] ------- [7:255 -1:255 1 0] [0x1 1 [7 18] 4.000000 ] (HELLO)
s 2.000000000 _8_ RTR  --- 0 WCETT 284 [0 0 0 0] ------- [8:255 -1:255 1 0] [0x1 1 [8 14] 4.000000 ] (HELLO)
s 2.000000000 _9_ RTR  --- 0 WCETT 284 [0 0 0 0] ------- [9:255 -1:255 1 0] [0x1 1 [9 14] 4.000000 ] (HELLO)
s 2.000000000 _10_ RTR  --- 0 WCETT 284 [0 0 0 0] ------- [10:255 -1:255 1 0] [0x1 1 [10 20] 4.000000 ] (HELLO)
s 2.000000000 _11_ RTR  --- 0 WCETT 284 [0 0 0 0] ------- [11:255 -1:255 1 0] [0x1 1 [11 14] 4.000000 ] (HELLO)
s 2.000000000 _12_ RTR  --- 0 WCETT 284 [0 0 0 0] ------- [12:255 -1:255 1 0] [0x1 1 [12 12] 4.000000 ] (HELLO)
s 2.000000000 _13_ RTR  --- 0 WCETT 284 [0 0 0 0] ------- [13:255 -1:255 1 0] [0x1 1 [13 18] 4.000000 ] (HELLO)
s 2.000000000 _14_ RTR  --- 0 WCETT 284 [0 0 0 0] ------- [14:255 -1:255 1 0] [0x1 1 [14 16] 4.000000 ] (HELLO)
s 2.000000000 _15_ RTR  --- 0 WCETT 284 [0 0 0 0] ------- [15:255 -1:255 1 0] [0x1 1 [15 10] 4.000000 ] (HELLO)
s 2.000000000 _16_ RTR  --- 0 WCETT 284 [0 0 0 0] ------- [16:255 -1:255 1 0] [0x1 1 [16 16] 4.000000 ] (HELLO)
s 2.000000000 _17_ RTR  --- 0 WCETT 284 [0 0 0 0] ------- [17:255 -1:255 1 0] [0x1 1 [17 12] 4.000000 ] (HELLO)
s 2.000000000 _18_ RTR  --- 0 WCETT 284 [0 0 0 0] ------- [18:255 -1:255 1 0] [0x1 1 [18 14] 4.000000 ] (HELLO)
r 2.002828333 _9_ RTR  --- 0 WCETT 284 [0 ffffffff c 800] ------- [12:255 -1:255 1 0] [0x1 1 [12 12] 4.000000 ] (HELLO)
r 2.002828333 _15_ RTR  --- 0 WCETT 284 [0 ffffffff c 800] ------- [12:255 -1:255 1 0] [0x1 1 [12 12] 4.000000 ] (HELLO)
r 2.002828667 _6_ RTR  --- 0 WCETT 284 [0 ffffffff c 800] ------- [12:255 -1:255 1 0] [0x1 1 [12 12] 4.000000 ] (HELLO)
r 2.002828667 _13_ RTR  --- 0 WCETT 284 [0 ffffffff c 800] ------- [12:255 -1:255 1 0] [0x1 1 [12 12] 4.000000 ] (HELLO)
r 2.002828745 _16_ RTR  --- 0 WCETT 284 [0 ffffffff c 800] ------- [12:255 -1:255 1 0] [0x1 1 [12 12] 4.000000 ] (HELLO)
r 2.005706667 _12_ RTR  --- 0 WCETT 284 [0 ffffffff f 800] ------- [15:255 -1:255 1 0] [0x1 1 [15 10] 4.000000 ] (HELLO)
r 2.005707000 _9_ RTR  --- 0 WCETT 284 [0 ffffffff f 800] ------- [15:255 -1:255 1 0] [0x1 1 [15 10] 4.000000 ] (HELLO)
r 2.005707000 _16_ RTR  --- 0 WCETT 284 [0 ffffffff f 800] ------- [15:255 -1:255 1 0] [0x1 1 [15 10] 4.000000 ] (HELLO)
r 2.006510667 _2_ RTR  --- 0 WCETT 284 [0 ffffffff 5 800] ------- [5:255 -1:255 1 0] [0x1 1 [5 14] 4.000000 ] (HELLO)
r 2.009693333 _1_ RTR  --- 0 WCETT 284 [0 ffffffff 4 800] ------- [4:255 -1:255 1 0] [0x1 1 [4 12] 4.000000 ] (HELLO)
r 2.009693333 _7_ RTR  --- 0 WCETT 284 [0 ffffffff 4 800] ------- [4:255 -1:255 1 0] [0x1 1 [4 12] 4.000000 ] (HELLO)
r 2.009693412 _4_ RTR  --- 0 WCETT 284 [0 ffffffff 1 800] ------- [1:255 -1:255 1 0] [0x1 1 [1 10] 4.000000 ] (HELLO)
r 2.012837079 _13_ RTR  --- 0 WCETT 284 [0 ffffffff 10 800] ------- [16:255 -1:255 1 0] [0x1 1 [16 16] 4.000000 ] (HELLO)