s 0.000000000 _0_ RTR  --- 0 WCETT 284 [0 0 0 0] ------- [0:255 -1:255 1 0] [0x1 1 [0 2] 4.000000 ] (HELLO)
s 0.000000000 _1_ RTR  --- 0 WCETT 284 [0 0 0 0] ------- [1:255 -1:255 1 0] [0x1 1 [1 2] 4.000000 ] (HELLO)
s 0.000000000 _2_ RTR  --- 0 WCETT 284 [0 0 0 0] ------- [2:255 -1:255 1 0] [0x1 1 [2 2] 4.000000 ] (HELLO)
s 0.000000000 _3_ RTR  --- 0 WCETT 284 [0 0 0 0] ------- [3:255 -1:255 1 0] [0x1 1 [3 2] 4.000000 ] (HELLO)
s 0.000000000 _4_ RTR  --- 0 WCETT 284 [0 0 0 0] ------- [4:255 -1:255 1 0] [0x1 1 [4 2] 4.000000 ] (HELLO)
s 0.000000000 _5_ RTR  --- 0 WCETT 284 [0 0 0 0] ------- [5:255 -1:255 1 0] [0x1 1 [5 2] 4.000000 ] (HELLO)
s 0.000000000 _6_ RTR  --- 0 WCETT 284 [0 0 0 0] ------- [6:255 -1:255 1 0] [0x1 1 [6 2] 4.000000 ] (HELLO)
s 0.000000000 _7_ RTR  --- 0 WCETT 284 [0 0 0 0] ------- [7:255 -1:255 1 0] [0x1 1 [7 2] 4.000000 ] (HELLO)
s 0.000000000 _8_ RTR  --- 0 WCETT 284 [0 0 0 0] ------- [8:255 -1:255 1 0] [0x1 1 [8 2] 4.000000 ] (HELLO)
s 0.000000000 _9_ RTR  --- 0 WCETT 284 [0 0 0 0] ------- [9:255 -1:255 1 0] [0x1 1 [9 2] 4.000000 ] (HELLO)
s 0.000000000 _10_ RTR  --- 0 WCETT 284 [0 0 0 0] ------- [10:255 -1:255 1 0] [0x1 1 [10 2] 4.000000 ] (HELLO)
s 0.000000000 _11_ RTR  --- 0 WCETT 284 [0 0 0 0] ------- [11:255 -1:255 1 0] [0x1 1 [11 2] 4.000000 ] (HELLO)
s 0.000000000 _12_ RTR  --- 0 WCETT 284 [0 0 0 0] ------- [12:255 -1:255 1 0] [0x1 1 [12 2] 4.000000 ] (HELLO)
s 0.000000000 _13_ RTR  --- 0 WCETT 284 [0 0 0 0] ------- [13:255 -1:255 1 0] [0x1 1 [13 2] 4.000000 ] (HELLO)
s 0.000000000 _14_ RTR  --- 0 WCETT 284 [0 0 0 0] ------- [14:255 -1:255 1 0] [0x1 1 [14 2] 4.000000 ] (HELLO)
s 0.000000000 _15_ RTR  --- 0 WCETT 284 [0 0 0 0] ------- [15:255 -1:255 1 0] [0x1 1 [15 2] 4.000000 ] (HELLO)
s 0.000000000 _16_ RTR  --- 0 WCETT 284 [0 0 0 0] ------- [16:255 -1:255 1 0] [0x1 1 [16 2] 4.000000 ] (HELLO)
s 0.000000000 _17_ RTR  --- 0 WCETT 284 [0 0 0 0] ------- [17:255 -1:255 1 0] [0x1 1 [17 2] 4.000000 ] (HELLO)
s 0.000000000 _18_ RTR  --- 0 WCETT 284 [0 0 0 0] ------- [18:255 -1:255 1 0] [0x1 1 [18 2] 4.000000 ] (HELLO)
s 0.000000000 _19_ RTR  --- 0 WCETT 284 [0 0 0 0] ------- [19:255 -1:255 1 0] [0x1 1 [19 2] 4.000000 ] (HELLO)
s 0.000000000 _20_ RTR  --- 0 WCETT 284 [0 0 0 0] ------- [20:255 -1:255 1 0] [0x1 1 [20 2] 4.000000 ] (HELLO)
s 0.000000000 _21_ RTR  --- 0 WCETT 284 [0 0 0 0] ------- [21:255 -1:255 1 0] [0x1 1 [21 2] 4.000000 ] (HELLO)
s 0.000000000 _22_ RTR  --- 0 WCETT 284 [0 0 0 0] ------- [22:255 -1:255 1 0] [0x1 1 [22 2] 4.000000 ] (HELLO)
s 0.000000000 _23_ RTR  --- 0 WCETT 284 [0 0 0 0] ------- [23:255 -1:255 1 0] [0x1 1 [23 2] 4.000000 ] (HELLO)
r 0.002788333 _2_ RTR  --- 0 WCETT 284 [0 ffffffff 5 800] ------- [5:255 -1:255 1 0] [0x1 1 [5 2] 4.000000 ] (HELLO)
r 0.002788333 _8_ RTR  --- 0 WCETT 284 [0 ffffffff 5 800] ------- [5:255 -1:255 1 0] [0x1 1 [5 2] 4.000000 ] (HELLO)
r 0.002788667 _4_ RTR  --- 0 WCETT 284 [0 ffffffff 5 800] ------- [5:255 -1:255 1 0] [0x1 1 [5 2] 4.000000 ] (HELLO)
r 0.002788667 _11_ RTR  --- 0 WCETT 284 [0 ffffffff 5 800] ------- [5:255 -1:255 1 0] [0x1 1 [5 2] 4.000000 ] (HELLO)
r 0.002788745 _1_ RTR  --- 0 WCETT 284 [0 ffffffff 5 800] ------- [5:255 -1:255 1 0] [0x1 1 [5 2] 4.000000 ] (HELLO)
r 0.006086667 _5_ RTR  --- 0 WCETT 284 [0 ffffffff 2 800] ------- [2:255 -1:255 1 0] [0x1 1 [2 2] 4.000000 ] (HELLO)
r 0.006087000 _1_ RTR  --- 0 WCETT 284 [0 ffffffff 2 800] ------- [2:255 -1:255 1 0] [0x1 1 [2 2] 4.000000 ] (HELLO)
r 0.006087000 _8_ RTR  --- 0 WCETT 284 [0 ffffffff 2 800] ------- [2:255 -1:255 1 0] [0x1 1 [2 2] 4.000000 ] (HELLO)
r 0.006290667 _15_ RTR  --- 0 WCETT 284 [0 ffffffff c 800] ------- [12:255 -1:255 1 0] [0x1 1 [12 2] 4.000000 ] (HELLO)
r 0.006290805 _19_ RTR  --- 0 WCETT 284 [0 ffffffff c 800] ------- [12:255 -1:255 1 0] [0x1 1 [12 2] 4.000000 ] (HELLO)
r 0.009329138 _15_ RTR  --- 0 WCETT 284 [0 ffffffff 13 800] ------- [19:255 -1:255 1 0] [0x1 1 [19 2] 4.000000 ] (HELLO)
r 0.009329138 _21_ RTR  --- 0 WCETT 284 [0 ffffffff 13 800] ------- [19:255 -1:255 1 0] [0x1 1 [19 2] 4.000000 ] (HELLO)
r 0.009329138 _16_ RTR  --- 0 WCETT 284 [0 ffffffff 13 800] ------- [19:255 -1:255 1 0] [0x1 1 [19 2] 4.000000 ] (HELLO)
r 0.009329276 _12_ RTR  --- 0 WCETT 284 [0 ffffffff 13 800] ------- [19:255 -1:255 1 0] [0x1 1 [19 2] 4.000000 ] (HELLO)
r 0.009329276 _13_ RTR  --- 0 WCETT 284 [0 ffffffff 13 800] ------- [19:255 -1:255 1 0] [0x1 1 [19 2] 4.000000 ] (HELLO)
r 0.009329471 _23_ RTR  --- 0 WCETT 284 [0 ffffffff 13 800] ------- [19:255 -1:255 1 0] [0x1 1 [19 2] 4.000000 ] (HELLO)
r 0.009329471 _18_ RTR  --- 0 WCETT 284 [0 ffffffff 13 800] ------- [19:255 -1:255 1 0] [0x1 1 [19 2] 4.000000 ] (HELLO)
r 0.009329550 _9_ RTR  --- 0 WCETT 284 [0 ffffffff 13 800] ------- [19:255 -1:255 1 0] [0x1 1 [19 2] 4.000000 ] (HELLO)
r 0.009329550 _10_ RTR  --- 0 WCETT 284 [0 ffffffff 13 800] ------- [19:255 -1:255 1 0] [0x1 1 [19 2] 4.000000 ] (HELLO)
r 0.009329550 _20_ RTR  --- 0 WCETT 284 [0 ffffffff 13 800] ------- [19:255 -1:255 1 0] [0x1 1 [19 2] 4.000000 ] (HELLO)
r 0.012087805 _21_ RTR  --- 0 WCETT 284 [0 ffffffff 17 800] ------- [23:255 -1:255 1 0] [0x1 1 [23 2] 4.000000 ] (HELLO)
r 0.012087805 _9_ RTR  --- 0 WCETT 284 [0 ffffffff 17 800] ------- [23:255 -1:255 1 0] [0x1 1 [23 2] 4.000000 ] (HELLO)
r 0.012087805 _10_ RTR  --- 0 WCETT 284 [0 ffffffff 17 800] ------- [23:255 -1:255 1 0] [0x1 1 [23 2] 4.000000 ] (HELLO)
r 0.012087943 _12_ RTR  --- 0 WCETT 284 [0 ffffffff 17 800] ------- [23:255 -1:255 1 0] [0x1 1 [23 2] 4.000000 ] (HELLO)
r 0.012087943 _6_ RTR  --- 0 WCETT 284 [0 ffffffff 17 800] ------- [23:255 -1:255 1 0] [0x1 1 [23 2] 4.000000 ] (HELLO)
r 0.012087943 _7_ RTR  --- 0 WCETT 284 [0 ffffffff 17 800] ------- [23:255 -1:255 1 0] [0x1 1 [23 2] 4.000000 ] (HELLO)
r 0.012087943 _13_ RTR  --- 0 WCETT 284 [0 ffffffff 17 800] ------- [23:255 -1:255 1 0] [0x1 1 [23 2] 4.000000 ] (HELLO)
r 0.012088138 _19_ RTR  --- 0 WCETT 284 [0 ffffffff 17 800] ------- [23:255 -1:255 1 0] [0x1 1 [23 2] 4.000000 ] (HELLO)
r 0.012088138 _22_ RTR  --- 0 WCETT 284 [0 ffffffff 17 800] ------- [23:255 -1:255 1 0] [0x1 1 [23 2] 4.000000 ] (HELLO)
r 0.012088217 _15_ RTR  --- 0 WCETT 284 [0 ffffffff 17 800] ------- [23:255 -1:255 1 0] [0x1 1 [23 2] 4.000000 ] (HELLO)
r 0.012088217 _3_ RTR  --- 0 WCETT 284 [0 ffffffff 17 800] ------- [23:255 -1:255 1 0] [0x1 1 [23 2] 4.000000 ] (HELLO)
r 0.012088217 _4_ RTR  --- 0 WCETT 284 [0 ffffffff 17 800] ------- [23:255 -1:255 1 0] [0x1 1 [23 2] 4.000000 ] (HELLO)
r 0.012088217 _16_ RTR  --- 0 WCETT 284 [0 ffffffff 17 800] ------- [23:255 -1:255 1 0] [0x1 1 [23 2] 4.000000 ] (HELLO)
r 0.012088217 _20_ RTR  --- 0 WCETT 284 [0 ffffffff 17 800] ------- [23:255 -1:255 1 0] [0x1 1 [23 2] 4.000000 ] (HELLO)
r 0.014986276 _3_ RTR  --- 0 WCETT 284 [0 ffffffff 6 800] ------- [6:255 -1:255 1 0] [0x1 1 [6 2] 4.000000 ] (HELLO)
r 0.014986276 _9_ RTR  --- 0 WCETT 284 [0 ffffffff 6 800] ------- [6:255 -1:255 1 0] [0x1 1 [6 2] 4.000000 ] (HELLO)
r 0.014986414 _23_ RTR  --- 0 WCETT 284 [0 ffffffff 6 800] ------- [6:255 -1:255 1 0] [0x1 1 [6 2] 4.000000 ] (HELLO)
r 0.014986609 _0_ RTR  --- 0 WCETT 284 [0 ffffffff 6 800] ------- [6:255 -1:255 1 0] [0x1 1 [6 2] 4.000000 ] (HELLO)
r 0.014986609 _12_ RTR  --- 0 WCETT 284 [0 ffffffff 6 800] ------- [6:255 -1:255 1 0] [0x1 1 [6 2] 4.000000 ] (HELLO)
r 0.014986609 _7_ RTR  --- 0 WCETT 284 [0 ffffffff 6 800] ------- [6:255 -1:255 1 0] [0x1 1 [6 2] 4.000000 ] (HELLO)
r 0.014986688 _21_ RTR  --- 0 WCETT 284 [0 ffffffff 6 800] ------- [6:255 -1:255 1 0] [0x1 1 [6 2] 4.000000 ] (HELLO)
r 0.014986688 _4_ RTR  --- 0 WCETT 284 [0 ffffffff 6 800] ------- [6:255 -1:255 1 0] [0x1 1 [6 2] 4.000000 ] (HELLO)
r 0.014986688 _10_ RTR  --- 0 WCETT 284 [0 ffffffff 6 800] ------- [6:255 -1:255 1 0] [0x1 1 [6 2] 4.000000 ] (HELLO)
r 0.017745021 _19_ RTR  --- 0 WCETT 284 [0 ffffffff 15 800] ------- [21:255 -1:255 1 0] [0x1 1 [21 2] 4.000000 ] (HELLO)
r 0.017745021 _12_ RTR  --- 0 WCETT 284 [0 ffffffff 15 800] ------- [21:255 -1:255 1 0] [0x1 1 [21 2] 4.000000 ] (HELLO)
r 0.017745021 _23_ RTR  --- 0 WCETT 284 [0 ffffffff 15 800] ------- [21:255 -1:255 1 0] [0x1 1 [21 2] 4.000000 ] (HELLO)
r 0.017745021 _13_ RTR  --- 0 WCETT 284 [0 ffffffff 15 800] ------- [21:255 -1:255 1 0] [0x1 1 [21 2] 4.000000 ] (HELLO)
r 0.017745160 _15_ RTR  --- 0 WCETT 284 [0 ffffffff 15 800] ------- [21:255 -1:255 1 0] [0x1 1 [21 2] 4.000000 ] (HELLO)
r 0.017745160 _9_ RTR  --- 0 WCETT 284 [0 ffffffff 15 800] ------- [21:255 -1:255 1 0] [0x1 1 [21 2] 4.000000 ] (HELLO)
r 0.017745160 _10_ RTR  --- 0 WCETT 284 [0 ffffffff 15 800] ------- [21:255 -1:255 1 0] [0x1 1 [21 2] 4.000000 ] (HELLO)
r 0.017745160 _16_ RTR  --- 0 WCETT 284 [0 ffffffff 15 800] ------- [21:255 -1:255 1 0] [0x1 1 [21 2] 4.000000 ] (HELLO)
r 0.017745355 _20_ RTR  --- 0 WCETT 284 [0 ffffffff 15 800] ------- [21:255 -1:255 1 0] [0x1 1 [21 2] 4.000000 ] (HELLO)
r 0.017745434 _6_ RTR  --- 0 WCETT 284 [0 ffffffff 15 800] ------- [21:255 -1:255 1 0] [0x1 1 [21 2] 4.000000 ] (HELLO)
r 0.017745434 _7_ RTR  --- 0 WCETT 284 [0 ffffffff 15 800] ------- [21:255 -1:255 1 0] [0x1 1 [21 2] 4.000000 ] (HELLO)
r 0.017745434 _18_ RTR  --- 0 WCETT 284 [0 ffffffff 15 800] ------- [21:255 -1:255 1 0] [0x1 1 [21 2] 4.000000 ] (HELLO)
r 0.017745434 _22_ RTR  --- 0 WCETT 284 [0 ffffffff 15 800] ------- [21:255 -1:255 1 0] [0x1 1 [21 2] 4.000000 ] (HELLO)
r 0.020503767 _4_ RTR  --- 0 WCETT 284 [0 ffffffff 7 800] ------- [7:255 -1:255 1 0] [0x1 1 [7 2] 4.000000 ] (HELLO)
r 0.020503767 _10_ RTR  --- 0 WCETT 284 [0 ffffffff 7 800] ------- [7:255 -1:255 1 0] [0x1 1 [7 2] 4.000000 ] (HELLO)
r 0.020503905 _23_ RTR  --- 0 WCETT 284 [0 ffffffff 7 800] ------- [7:255 -1:255 1 0] [0x1 1 [7 2] 4.000000 ] (HELLO)
r 0.020503905 _22_ RTR  --- 0 WCETT 284 [0 ffffffff 7 800] ------- [7:255 -1:255 1 0] [0x1 1 [7 2] 4.000000 ] (HELLO)
r 0.020504100 _1_ RTR  --- 0 WCETT 284 [0 ffffffff 7 800] ------- [7:255 -1:255 1 0] [0x1 1 [7 2] 4.000000 ] (HELLO)
r 0.020504100 _6_ RTR  --- 0 WCETT 284 [0 ffffffff 7 800] ------- [7:255 -1:255 1 0] [0x1 1 [7 2] 4.000000 ] (HELLO)
r 0.020504100 _13_ RTR  --- 0 WCETT 284 [0 ffffffff 7 800] ------- [7:255 -1:255 1 0] [0x1 1 [7 2] 4.000000 ] (HELLO)
r 0.020504100 _8_ RTR  --- 0 WCETT 284 [0 ffffffff 7 800] ------- [7:255 -1:255 1 0] [0x1 1 [7 2] 4.000000 ] (HELLO)
r 0.020504179 _21_ RTR  --- 0 WCETT 284 [0 ffffffff 7 800] ------- [7:255 -1:255 1 0] [0x1 1 [7 2] 4.000000 ] (HELLO)
r 0.020504179 _9_ RTR  --- 0 WCETT 284 [0 ffffffff 7 800] ------- [7:255 -1:255 1 0] [0x1 1 [7 2] 4.000000 ] (HELLO)
r 0.020504179 _3_ RTR  --- 0 WCETT 284 [0 ffffffff 7 800] ------- [7:255 -1:255 1 0] [0x1 1 [7 2] 4.000000 ] (HELLO)
r 0.020504179 _20_ RTR  --- 0 WCETT 284 [0 ffffffff 7 800] ------- [7:255 -1:255 1 0] [0x1 1 [7 2] 4.000000 ] (HELLO)
r 0.020504179 _5_ RTR  --- 0 WCETT 284 [0 ffffffff 7 800] ------- [7:255 -1:255 1 0] [0x1 1 [7 2] 4.000000 ] (HELLO)
r 0.020504179 _11_ RTR  --- 0 WCETT 284 [0 ffffffff 7 800] ------- [7:255 -1:255 1 0] [0x1 1 [7 2] 4.000000 ] (HELLO)
r 0.023282100 _23_ RTR  --- 0 WCETT 284 [0 ffffffff a 800] ------- [10:255 -1:255 1 0] [0x1 1 [10 2] 4.000000 ] (HELLO)
r 0.023282100 _22_ RTR  --- 0 WCETT 284 [0 ffffffff a 800] ------- [10:255 -1:255 1 0] [0x1 1 [10 2] 4.000000 ] (HELLO)
r 0.023282238 _10_ RTR  --- 0 WCETT 284 [0 ffffffff 16 800] ------- [22:255 -1:255 1 0] [0x1 1 [22 2] 4.000000 ] (HELLO)
r 0.023282238 _11_ RTR  --- 0 WCETT 284 [0 ffffffff 16 800] ------- [22:255 -1:255 1 0] [0x1 1 [22 2] 4.000000 ] (HELLO)
r 0.023282767 _0_ RTR  --- 0 WCETT 284 [0 ffffffff 1 800] ------- [1:255 -1:255 1 0] [0x1 1 [1 2] 4.000000 ] (HELLO)
r 0.026426100 _13_ RTR  --- 0 WCETT 284 [0 ffffffff 10 800] ------- [16:255 -1:255 1 0] [0x1 1 [16 2] 4.000000 ] (HELLO)
r 0.026426100 _19_ RTR  --- 0 WCETT 284 [0 ffffffff 10 800] ------- [16:255 -1:255 1 0] [0x1 1 [16 2] 4.000000 ] (HELLO)
r 0.026426100 _18_ RTR  --- 0 WCETT 284 [0 ffffffff 10 800] ------- [16:255 -1:255 1 0] [0x1 1 [16 2] 4.000000 ] (HELLO)
r 0.026426238 _21_ RTR  --- 0 WCETT 284 [0 ffffffff 10 800] ------- [16:255 -1:255 1 0] [0x1 1 [16 2] 4.000000 ] (HELLO)
r 0.026426238 _20_ RTR  --- 0 WCETT 284 [0 ffffffff 10 800] ------- [16:255 -1:255 1 0] [0x1 1 [16 2] 4.000000 ] (HELLO)
r 0.026426434 _10_ RTR  --- 0 WCETT 284 [0 ffffffff 10 800] ------- [16:255 -1:255 1 0] [0x1 1 [16 2] 4.000000 ] (HELLO)
r 0.026426434 _15_ RTR  --- 0 WCETT 284 [0 ffffffff 10 800] ------- [16:255 -1:255 1 0] [0x1 1 [16 2] 4.000000 ] (HELLO)
r 0.026426434 _17_ RTR  --- 0 WCETT 284 [0 ffffffff 10 800] ------- [16:255 -1:255 1 0] [0x1 1 [16 2] 4.000000 ] (HELLO)
r 0.026426512 _23_ RTR  --- 0 WCETT 284 [0 ffffffff 10 800] ------- [16:255 -1:255 1 0] [0x1 1 [16 2] 4.000000 ] (HELLO)
r 0.026426512 _12_ RTR  --- 0 WCETT 284 [0 ffffffff 10 800] ------- [16:255 -1:255 1 0] [0x1 1 [16 2] 4.000000 ] (HELLO)
r 0.026426512 _22_ RTR  --- 0 WCETT 284 [0 ffffffff 10 800] ------- [16:255 -1:255 1 0] [0x1 1 [16 2] 4.000000 ] (HELLO)
r 0.026426512 _14_ RTR  --- 0 WCETT 284 [0 ffffffff 10 800] ------- [16:255 -1:255 1 0] [0x1 1 [16 2] 4.000000 ] (HELLO)
r 0.029204572 _18_ RTR  --- 0 WCETT 284 [0 ffffffff 14 800] ------- [20:255 -1:255 1 0] [0x1 1 [20 2] 4.000000 ] (HELLO)
r 0.029204572 _13_ RTR  --- 0 WCETT 284 [0 ffffffff 14 800] ------- [20:255 -1:255 1 0] [0x1 1 [20 2] 4.000000 ] (HELLO)
r 0.029204572 _22_ RTR  --- 0 WCETT 284 [0 ffffffff 14 800] ------- [20:255 -1:255 1 0] [0x1 1 [20 2] 4.000000 ] (HELLO)
r 0.029204572 _14_ RTR  --- 0 WCETT 284 [0 ffffffff 14 800] ------- [20:255 -1:255 1 0] [0x1 1 [20 2] 4.000000 ] (HELLO)
r 0.029204710 _16_ RTR  --- 0 WCETT 284 [0 ffffffff 14 800] ------- [20:255 -1:255 1 0] [0x1 1 [20 2] 4.000000 ] (HELLO)
r 0.029204710 _10_ RTR  --- 0 WCETT 284 [0 ffffffff 14 800] ------- [20:255 -1:255 1 0] [0x1 1 [20 2] 4.000000 ] (HELLO)
r 0.029204710 _11_ RTR  --- 0 WCETT 284 [0 ffffffff 14 800] ------- [20:255 -1:255 1 0] [0x1 1 [20 2] 4.000000 ] (HELLO)
r 0.029204710 _17_ RTR  --- 0 WCETT 284 [0 ffffffff 14 800] ------- [20:255 -1:255 1 0] [0x1 1 [20 2] 4.000000 ] (HELLO)
r 0.029204905 _21_ RTR  --- 0 WCETT 284 [0 ffffffff 14 800] ------- [20:255 -1:255 1 0] [0x1 1 [20 2] 4.000000 ] (HELLO)
r 0.029204984 _7_ RTR  --- 0 WCETT 284 [0 ffffffff 14 800] ------- [20:255 -1:255 1 0] [0x1 1 [20 2] 4.000000 ] (HELLO)
r 0.029204984 _23_ RTR  --- 0 WCETT 284 [0 ffffffff 14 800] ------- [20:255 -1:255 1 0] [0x1 1 [20 2] 4.000000 ] (HELLO)
r 0.029204984 _19_ RTR  --- 0 WCETT 284 [0 ffffffff 14 800] ------- [20:255 -1:255 1 0] [0x1 1 [20 2] 4.000000 ] (HELLO)
r 0.029204984 _8_ RTR  --- 0 WCETT 284 [0 ffffffff 14 800] ------- [20:255 -1:255 1 0] [0x1 1 [20 2] 4.000000 ] (HELLO)
r 0.032022905 _11_ RTR  --- 0 WCETT 284 [0 ffffffff e 800] ------- [14:255 -1:255 1 0] [0x1 1 [14 2] 4.000000 ] (HELLO)
r 0.032022905 _17_ RTR  --- 0 WCETT 284 [0 ffffffff e 800] ------- [14:255 -1:255 1 0] [0x1 1 [14 2] 4.000000 ] (HELLO)
r 0.032023043 _14_ RTR  --- 0 WCETT 284 [0 ffffffff 11 800] ------- [17:255 -1:255 1 0] [0x1 1 [17 2] 4.000000 ] (HELLO)
r 0.035405376 _16_ RTR  --- 0 WCETT 284 [0 ffffffff 12 800] ------- [18:255 -1:255 1 0] [0x1 1 [18 2] 4.000000 ] (HELLO)
r 0.035405376 _20_ RTR  --- 0 WCETT 284 [0 ffffffff 12 800] ------- [18:255 -1:255 1 0] [0x1 1 [18 2] 4.000000 ] (HELLO)
r 0.035405376 _17_ RTR  --- 0 WCETT 284 [0 ffffffff 12 800] ------- [18:255 -1:255 1 0] [0x1 1 [18 2] 4.000000 ] (HELLO)
r 0.035405514 _13_ RTR  --- 0 WCETT 284 [0 ffffffff 12 800] ------- [18:255 -1:255 1 0] [0x1 1 [18 2] 4.000000 ] (HELLO)
r 0.035405514 _14_ RTR  --- 0 WCETT 284 [0 ffffffff 12 800] ------- [18:255 -1:255 1 0] [0x1 1 [18 2] 4.000000 ] (HELLO)
r 0.035405710 _19_ RTR  --- 0 WCETT 284 [0 ffffffff 12 800] ------- [18:255 -1:255 1 0] [0x1 1 [18 2] 4.000000 ] (HELLO)
r 0.035405710 _22_ RTR  --- 0 WCETT 284 [0 ffffffff 12 800] ------- [18:255 -1:255 1 0] [0x1 1 [18 2] 4.000000 ] (HELLO)
r 0.035405788 _10_ RTR  --- 0 WCETT 284 [0 ffffffff 12 800] ------- [18:255 -1:255 1 0] [0x1 1 [18 2] 4.000000 ] (HELLO)
r 0.035405788 _21_ RTR  --- 0 WCETT 284 [0 ffffffff 12 800] ------- [18:255 -1:255 1 0] [0x1 1 [18 2] 4.000000 ] (HELLO)
r 0.035405788 _11_ RTR  --- 0 WCETT 284 [0 ffffffff 12 800] ------- [18:255 -1:255 1 0] [0x1 1 [18 2] 4.000000 ] (HELLO)
r 0.038224122 _8_ RTR  --- 0 WCETT 284 [0 ffffffff b 800] ------- [11:255 -1:255 1 0] [0x1 1 [11 2] 4.000000 ] (HELLO)
r 0.038224122 _22_ RTR  --- 0 WCETT 284 [0 ffffffff b 800] ------- [11:255 -1:255 1 0] [0x1 1 [11 2] 4.000000 ] (HELLO)
r 0.038224122 _14_ RTR  --- 0 WCETT 284 [0 ffffffff b 800] ------- [11:255 -1:255 1 0] [0x1 1 [11 2] 4.000000 ] (HELLO)
r 0.038224260 _20_ RTR  --- 0 WCETT 284 [0 ffffffff b 800] ------- [11:255 -1:255 1 0] [0x1 1 [11 2] 4.000000 ] (HELLO)
r 0.038224455 _5_ RTR  --- 0 WCETT 284 [0 ffffffff b 800] ------- [11:255 -1:255 1 0] [0x1 1 [11 2] 4.000000 ] (HELLO)
r 0.038224455 _10_ RTR  --- 0 WCETT 284 [0 ffffffff b 800] ------- [11:255 -1:255 1 0] [0x1 1 [11 2] 4.000000 ] (HELLO)
r 0.038224455 _17_ RTR  --- 0 WCETT 284 [0 ffffffff b 800] ------- [11:255 -1:255 1 0] [0x1 1 [11 2] 4.000000 ] (HELLO)
r 0.038224534 _18_ RTR  --- 0 WCETT 284 [0 ffffffff b 800] ------- [11:255 -1:255 1 0] [0x1 1 [11 2] 4.000000 ] (HELLO)
r 0.038224534 _13_ RTR  --- 0 WCETT 284 [0 ffffffff b 800] ------- [11:255 -1:255 1 0] [0x1 1 [11 2] 4.000000 ] (HELLO)
r 0.038224534 _7_ RTR  --- 0 WCETT 284 [0 ffffffff b 800] ------- [11:255 -1:255 1 0] [0x1 1 [11 2] 4.000000 ] (HELLO)
r 0.041022867 _10_ RTR  --- 0 WCETT 284 [0 ffffffff d 800] ------- [13:255 -1:255 1 0] [0x1 1 [13 2] 4.000000 ] (HELLO)
r 0.041022867 _21_ RTR  --- 0 WCETT 284 [0 ffffffff d 800] ------- [13:255 -1:255 1 0] [0x1 1 [13 2] 4.000000 ] (HELLO)
r 0.041022867 _16_ RTR  --- 0 WCETT 284 [0 ffffffff d 800] ------- [13:255 -1:255 1 0] [0x1 1 [13 2] 4.000000 ] (HELLO)
r 0.041022867 _20_ RTR  --- 0 WCETT 284 [0 ffffffff d 800] ------- [13:255 -1:255 1 0] [0x1 1 [13 2] 4.000000 ] (HELLO)
r 0.041023005 _23_ RTR  --- 0 WCETT 284 [0 ffffffff d 800] ------- [13:255 -1:255 1 0] [0x1 1 [13 2] 4.000000 ] (HELLO)
r 0.041023005 _19_ RTR  --- 0 WCETT 284 [0 ffffffff d 800] ------- [13:255 -1:255 1 0] [0x1 1 [13 2] 4.000000 ] (HELLO)
r 0.041023005 _18_ RTR  --- 0 WCETT 284 [0 ffffffff d 800] ------- [13:255 -1:255 1 0] [0x1 1 [13 2] 4.000000 ] (HELLO)
r 0.041023005 _22_ RTR  --- 0 WCETT 284 [0 ffffffff d 800] ------- [13:255 -1:255 1 0] [0x1 1 [13 2] 4.000000 ] (HELLO)
r 0.041023200 _7_ RTR  --- 0 WCETT 284 [0 ffffffff d 800] ------- [13:255 -1:255 1 0] [0x1 1 [13 2] 4.000000 ] (HELLO)
r 0.041023200 _12_ RTR  --- 0 WCETT 284 [0 ffffffff d 800] ------- [13:255 -1:255 1 0] [0x1 1 [13 2] 4.000000 ] (HELLO)
r 0.041023200 _14_ RTR  --- 0 WCETT 284 [0 ffffffff d 800] ------- [13:255 -1:255 1 0] [0x1 1 [13 2] 4.000000 ] (HELLO)
r 0.041023279 _15_ RTR  --- 0 WCETT 284 [0 ffffffff d 800] ------- [13:255 -1:255 1 0] [0x1 1 [13 2] 4.000000 ] (HELLO)
r 0.041023279 _9_ RTR  --- 0 WCETT 284 [0 ffffffff d 800] ------- [13:255 -1:255 1 0] [0x1 1 [13 2] 4.000000 ] (HELLO)
r 0.041023279 _11_ RTR  --- 0 WCETT 284 [0 ffffffff d 800] ------- [13:255 -1:255 1 0] [0x1 1 [13 2] 4.000000 ] (HELLO)
r 0.041023279 _17_ RTR  --- 0 WCETT 284 [0 ffffffff d 800] ------- [13:255 -1:255 1 0] [0x1 1 [13 2] 4.000000 ] (HELLO)
r 0.043821612 _6_ RTR  --- 0 WCETT 284 [0 ffffffff 9 800] ------- [9:255 -1:255 1 0] [0x1 1 [9 2] 4.000000 ] (HELLO)
r 0.043821612 _12_ RTR  --- 0 WCETT 284 [0 ffffffff 9 800] ------- [9:255 -1:255 1 0] [0x1 1 [9 2] 4.000000 ] (HELLO)
r 0.043821612 _23_ RTR  --- 0 WCETT 284 [0 ffffffff 9 800] ------- [9:255 -1:255 1 0] [0x1 1 [9 2] 4.000000 ] (HELLO)
r 0.043821750 _21_ RTR  --- 0 WCETT 284 [0 ffffffff 9 800] ------- [9:255 -1:255 1 0] [0x1 1 [9 2] 4.000000 ] (HELLO)
r 0.043821946 _3_ RTR  --- 0 WCETT 284 [0 ffffffff 9 800] ------- [9:255 -1:255 1 0] [0x1 1 [9 2] 4.000000 ] (HELLO)
r 0.043821946 _15_ RTR  --- 0 WCETT 284 [0 ffffffff 9 800] ------- [9:255 -1:255 1 0] [0x1 1 [9 2] 4.000000 ] (HELLO)
r 0.043821946 _10_ RTR  --- 0 WCETT 284 [0 ffffffff 9 800] ------- [9:255 -1:255 1 0] [0x1 1 [9 2] 4.000000 ] (HELLO)
r 0.043822024 _19_ RTR  --- 0 WCETT 284 [0 ffffffff 9 800] ------- [9:255 -1:255 1 0] [0x1 1 [9 2] 4.000000 ] (HELLO)
r 0.043822024 _7_ RTR  --- 0 WCETT 284 [0 ffffffff 9 800] ------- [9:255 -1:255 1 0] [0x1 1 [9 2] 4.000000 ] (HELLO)
r 0.043822024 _13_ RTR  --- 0 WCETT 284 [0 ffffffff 9 800] ------- [9:255 -1:255 1 0] [0x1 1 [9 2] 4.000000 ] (HELLO)
r 0.046600279 _0_ RTR  --- 0 WCETT 284 [0 ffffffff 3 800] ------- [3:255 -1:255 1 0] [0x1 1 [3 2] 4.000000 ] (HELLO)
r 0.046600279 _6_ RTR  --- 0 WCETT 284 [0 ffffffff 3 800] ------- [3:255 -1:255 1 0] [0x1 1 [3 2] 4.000000 ] (HELLO)
r 0.046600612 _9_ RTR  --- 0 WCETT 284 [0 ffffffff 3 800] ------- [3:255 -1:255 1 0] [0x1 1 [3 2] 4.000000 ] (HELLO)
r 0.046600612 _4_ RTR  --- 0 WCETT 284 [0 ffffffff 3 800] ------- [3:255 -1:255 1 0] [0x1 1 [3 2] 4.000000 ] (HELLO)
r 0.046600691 _23_ RTR  --- 0 WCETT 284 [0 ffffffff 3 800] ------- [3:255 -1:255 1 0] [0x1 1 [3 2] 4.000000 ] (HELLO)
r 0.046600691 _1_ RTR  --- 0 WCETT 284 [0 ffffffff 3 800] ------- [3:255 -1:255 1 0] [0x1 1 [3 2] 4.000000 ] (HELLO)
r 0.046600691 _7_ RTR  --- 0 WCETT 284 [0 ffffffff 3 800] ------- [3:255 -1:255 1 0] [0x1 1 [3 2] 4.000000 ] (HELLO)
r 0.049398946 _1_ RTR  --- 0 WCETT 284 [0 ffffffff 4 800] ------- [4:255 -1:255 1 0] [0x1 1 [4 2] 4.000000 ] (HELLO)
r 0.049398946 _7_ RTR  --- 0 WCETT 284 [0 ffffffff 4 800] ------- [4:255 -1:255 1 0] [0x1 1 [4 2] 4.000000 ] (HELLO)
r 0.049399279 _3_ RTR  --- 0 WCETT 284 [0 ffffffff 4 800] ------- [4:255 -1:255 1 0] [0x1 1 [4 2] 4.000000 ] (HELLO)
r 0.049399279 _10_ RTR  --- 0 WCETT 284 [0 ffffffff 4 800] ------- [4:255 -1:255 1 0] [0x1 1 [4 2] 4.000000 ] (HELLO)
r 0.049399279 _5_ RTR  --- 0 WCETT 284 [0 ffffffff 4 800] ------- [4:255 -1:255 1 0] [0x1 1 [4 2] 4.000000 ] (HELLO)
r 0.049399358 _23_ RTR  --- 0 WCETT 284 [0 ffffffff 4 800] ------- [4:255 -1:255 1 0] [0x1 1 [4 2] 4.000000 ] (HELLO)
r 0.049399358 _6_ RTR  --- 0 WCETT 284 [0 ffffffff 4 800] ------- [4:255 -1:255 1 0] [0x1 1 [4 2] 4.000000 ] (HELLO)
r 0.049399358 _0_ RTR  --- 0 WCETT 284 [0 ffffffff 4 800] ------- [4:255 -1:255 1 0] [0x1 1 [4 2] 4.000000 ] (HELLO)
r 0.049399358 _22_ RTR  --- 0 WCETT 284 [0 ffffffff 4 800] ------- [4:255 -1:255 1 0] [0x1 1 [4 2] 4.000000 ] (HELLO)
r 0.049399358 _2_ RTR  --- 0 WCETT 284 [0 ffffffff 4 800] ------- [4:255 -1:255 1 0] [0x1 1 [4 2] 4.000000 ] (HELLO)
r 0.049399358 _8_ RTR  --- 0 WCETT 284 [0 ffffffff 4 800] ------- [4:255 -1:255 1 0] [0x1 1 [4 2] 4.000000 ] (HELLO)
r 0.052157691 _5_ RTR  --- 0 WCETT 284 [0 ffffffff 8 800] ------- [8:255 -1:255 1 0] [0x1 1 [8 2] 4.000000 ] (HELLO)
r 0.052157691 _11_ RTR  --- 0 WCETT 284 [0 ffffffff 8 800] ------- [8:255 -1:255 1 0] [0x1 1 [8 2] 4.000000 ] (HELLO)
r 0.052157829 _22_ RTR  --- 0 WCETT 284 [0 ffffffff 8 800] ------- [8:255 -1:255 1 0] [0x1 1 [8 2] 4.000000 ] (HELLO)
r 0.052158024 _2_ RTR  --- 0 WCETT 284 [0 ffffffff 8 800] ------- [8:255 -1:255 1 0] [0x1 1 [8 2] 4.000000 ] (HELLO)
r 0.052158024 _7_ RTR  --- 0 WCETT 284 [0 ffffffff 8 800] ------- [8:255 -1:255 1 0] [0x1 1 [8 2] 4.000000 ] (HELLO)
r 0.052158024 _14_ RTR  --- 0 WCETT 284 [0 ffffffff 8 800] ------- [8:255 -1:255 1 0] [0x1 1 [8 2] 4.000000 ] (HELLO)
r 0.052158103 _20_ RTR  --- 0 WCETT 284 [0 ffffffff 8 800] ------- [8:255 -1:255 1 0] [0x1 1 [8 2] 4.000000 ] (HELLO)
r 0.052158103 _10_ RTR  --- 0 WCETT 284 [0 ffffffff 8 800] ------- [8:255 -1:255 1 0] [0x1 1 [8 2] 4.000000 ] (HELLO)
r 0.052158103 _4_ RTR  --- 0 WCETT 284 [0 ffffffff 8 800] ------- [8:255 -1:255 1 0] [0x1 1 [8 2] 4.000000 ] (HELLO)
s 1.000000000 _0_ RTR  --- 0 WCETT 284 [0 0 0 0] ------- [0:255 -1:255 1 0] [0x1 1 [0 10] 4.000000 ] (HELLO)
s 1.000000000 _1_ RTR  --- 0 WCETT 284 [0 0 0 0] ------- [1:255 -1:255 1 0] [0x1 1 [1 12] 4.000000 ] (HELLO)
s 1.000000000 _2_ RTR  --- 0 WCETT 284 [0 0 0 0] ------- [2:255 -1:255 1 0] [0x1 1 [2 8] 4.000000 ] (HELLO)
s 1.000000000 _3_ RTR  --- 0 WCETT 284 [0 0 0 0] ------- [3:255 -1:255 1 0] [0x1 1 [3 12] 4.000000 ] (HELLO)
s 1.000000000 _4_ RTR  --- 0 WCETT 284 [0 0 0 0] ------- [4:255 -1:255 1 0] [0x1 1 [4 14] 4.000000 ] (HELLO)
s 1.000000000 _5_ RTR  --- 0 WCETT 284 [0 0 0 0] ------- [5:255 -1:255 1 0] [0x1 1 [5 12] 4.000000 ] (HELLO)
s 1.000000000 _6_ RTR  --- 0 WCETT 284 [0 0 0 0] ------- [6:255 -1:255 1 0] [0x1 1 [6 14] 4.000000 ] (HELLO)
s 1.000000000 _7_ RTR  --- 0 WCETT 284 [0 0 0 0] ------- [7:255 -1:255 1 0] [0x1 1 [7 22] 4.000000 ] (HELLO)
s 1.000000000 _8_ RTR  --- 0 WCETT 284 [0 0 0 0] ------- [8:255 -1:255 1 0] [0x1 1 [8 14] 4.000000 ] (HELLO)
s 1.000000000 _9_ RTR  --- 0 WCETT 284 [0 0 0 0] ------- [9:255 -1:255 1 0] [0x1 1 [9 16] 4.000000 ] (HELLO)
s 1.000000000 _10_ RTR  --- 0 WCETT 284 [0 0 0 0] ------- [10:255 -1:255 1 0] [0x1 1 [10 30] 4.000000 ] (HELLO)
s 1.000000000 _11_ RTR  --- 0 WCETT 284 [0 0 0 0] ------- [11:255 -1:255 1 0] [0x1 1 [11 18] 4.000000 ] (HELLO)
s 1.000000000 _12_ RTR  --- 0 WCETT 284 [0 0 0 0] ------- [12:255 -1:255 1 0] [0x1 1 [12 16] 4.000000 ] (HELLO)
s 1.000000000 _13_ RTR  --- 0 WCETT 284 [0 0 0 0] ------- [13:255 -1:255 1 0] [0x1 1 [13 20] 4.000000 ] (HELLO)
s 1.000000000 _14_ RTR  --- 0 WCETT 284 [0 0 0 0] ------- [14:255 -1:255 1 0] [0x1 1 [14 16] 4.000000 ] (HELLO)
s 1.000000000 _15_ RTR  --- 0 WCETT 284 [0 0 0 0] ------- [15:255 -1:255 1 0] [0x1 1 [15 16] 4.000000 ] (HELLO)
s 1.000000000 _16_ RTR  --- 0 WCETT 284 [0 0 0 0] ------- [16:255 -1:255 1 0] [0x1 1 [16 14] 4.000000 ] (HELLO)
s 1.000000000 _17_ RTR  --- 0 WCETT 284 [0 0 0 0] ------- [17:255 -1:255 1 0] [0x1 1 [17 14] 4.000000 ] (HELLO)
s 1.000000000 _18_ RTR  --- 0 WCETT 284 [0 0 0 0] ------- [18:255 -1:255 1 0] [0x1 1 [18 14] 4.000000 ] (HELLO)
s 1.000000000 _19_ RTR  --- 0 WCETT 284 [0 0 0 0] ------- [19:255 -1:255 1 0] [0x1 1 [19 18] 4.000000 ] (HELLO)
s 1.000000000 _20_ RTR  --- 0 WCETT 284 [0 0 0 0] ------- [20:255 -1:255 1 0] [0x1 1 [20 20] 4.000000 ] (HELLO)
s 1.000000000 _21_ RTR  --- 0 WCETT 284 [0 0 0 0] ------- [21:255 -1:255 1 0] [0x1 1 [21 20] 4.000000 ] (HELLO)
s 1.000000000 _22_ RTR  --- 0 WCETT 284 [0 0 0 0] ------- [22:255 -1:255 1 0] [0x1 1 [22 24] 4.000000 ] (HELLO)
s 1.000000000 _23_ RTR  --- 0 WCETT 284 [0 0 0 0] ------- [23:255 -1:255 1 0] [0x1 1 [23 24] 4.000000 ] (HELLO)
r 1.002788333 _0_ RTR  --- 0 WCETT 284 [0 ffffffff 3 800] ------- [3:255 -1:255 1 0] [0x1 1 [3 12] 4.000000 ] (HELLO)
r 1.002788333 _6_ RTR  --- 0 WCETT 284 [0 ffffffff 3 800] ------- [3:255 -1:255 1 0] [0x1 1 [3 12] 4.000000 ] (HELLO)
r 1.002788333 _7_ RTR  --- 0 WCETT 284 [0 ffffffff a 800] ------- [10:255 -1:255 1 0] [0x1 1 [10 30] 4.000000 ] (HELLO)
r 1.002788333 _23_ RTR  --- 0 WCETT 284 [0 ffffffff a 800] ------- [10:255 -1:255 1 0] [0x1 1 [10 30] 4.000000 ] (HELLO)
r 1.002788333 _13_ RTR  --- 0 WCETT 284 [0 ffffffff a 800] ------- [10:255 -1:255 1 0] [0x1 1 [10 30] 4.000000 ] (HELLO)
r 1.002788333 _22_ RTR  --- 0 WCETT 284 [0 ffffffff a 800] ------- [10:255 -1:255 1 0] [0x1 1 [10 30] 4.000000 ] (HELLO)
r 1.002788471 _21_ RTR  --- 0 WCETT 284 [0 ffffffff a 800] ------- [10:255 -1:255 1 0] [0x1 1 [10 30] 4.000000 ] (HELLO)
r 1.002788471 _20_ RTR  --- 0 WCETT 284 [0 ffffffff a 800] ------- [10:255 -1:255 1 0] [0x1 1 [10 30] 4.000000 ] (HELLO)
r 1.002788667 _16_ RTR  --- 0 WCETT 284 [0 ffffffff a 800] ------- [10:255 -1:255 1 0] [0x1 1 [10 30] 4.000000 ] (HELLO)
r 1.002788667 _11_ RTR  --- 0 WCETT 284 [0 ffffffff a 800] ------- [10:255 -1:255 1 0] [0x1 1 [10 30] 4.000000 ] (HELLO)
r 1.002788745 _19_ RTR  --- 0 WCETT 284 [0 ffffffff a 800] ------- [10:255 -1:255 1 0] [0x1 1 [10 30] 4.000000 ] (HELLO)
r 1.002788745 _18_ RTR  --- 0 WCETT 284 [0 ffffffff a 800] ------- [10:255 -1:255 1 0] [0x1 1 [10 30] 4.000000 ] (HELLO)
r 1.002788745 _8_ RTR  --- 0 WCETT 284 [0 ffffffff a 800] ------- [10:255 -1:255 1 0] [0x1 1 [10 30] 4.000000 ] (HELLO)
r 1.002788745 _14_ RTR  --- 0 WCETT 284 [0 ffffffff a 800] ------- [10:255 -1:255 1 0] [0x1 1 [10 30] 4.000000 ] (HELLO)
r 1.005912000 _11_ RTR  --- 0 WCETT 284 [0 ffffffff e 800] ------- [14:255 -1:255 1 0] [0x1 1 [14 16] 4.000000 ] (HELLO)
r 1.005912000 _20_ RTR  --- 0 WCETT 284 [0 ffffffff e 800] ------- [14:255 -1:255 1 0] [0x1 1 [14 16] 4.000000 ] (HELLO)
r 1.005912000 _17_ RTR  --- 0 WCETT 284 [0 ffffffff e 800] ------- [14:255 -1:255 1 0] [0x1 1 [14 16] 4.000000 ] (HELLO)
r 1.005912138 _22_ RTR  --- 0 WCETT 284 [0 ffffffff e 800] ------- [14:255 -1:255 1 0] [0x1 1 [14 16] 4.000000 ] (HELLO)
r 1.005912138 _18_ RTR  --- 0 WCETT 284 [0 ffffffff e 800] ------- [14:255 -1:255 1 0] [0x1 1 [14 16] 4.000000 ] (HELLO)
r 1.005912333 _8_ RTR  --- 0 WCETT 284 [0 ffffffff e 800] ------- [14:255 -1:255 1 0] [0x1 1 [14 16] 4.000000 ] (HELLO)
r 1.005912333 _13_ RTR  --- 0 WCETT 284 [0 ffffffff e 800] ------- [14:255 -1:255 1 0] [0x1 1 [14 16] 4.000000 ] (HELLO)
r 1.005912412 _16_ RTR  --- 0 WCETT 284 [0 ffffffff e 800] ------- [14:255 -1:255 1 0] [0x1 1 [14 16] 4.000000 ] (HELLO)
r 1.008750333 _14_ RTR  --- 0 WCETT 284 [0 ffffffff 11 800] ------- [17:255 -1:255 1 0] [0x1 1 [17 14] 4.000000 ] (HELLO)
r 1.008750333 _18_ RTR  --- 0 WCETT 284 [0 ffffffff 11 800] ------- [17:255 -1:255 1 0] [0x1 1 [17 14] 4.000000 ] (HELLO)
r 1.008750471 _20_ RTR  --- 0 WCETT 284 [0 ffffffff 11 800] ------- [17:255 -1:255 1 0] [0x1 1 [17 14] 4.000000 ] (HELLO)
r 1.008750667 _11_ RTR  --- 0 WCETT 284 [0 ffffffff 11 800] ------- [17:255 -1:255 1 0] [0x1 1 [17 14] 4.000000 ] (HELLO)
r 1.008750667 _16_ RTR  --- 0 WCETT 284 [0 ffffffff 11 800] ------- [17:255 -1:255 1 0] [0x1 1 [17 14] 4.000000 ] (HELLO)
r 1.008750745 _22_ RTR  --- 0 WCETT 284 [0 ffffffff 11 800] ------- [17:255 -1:255 1 0] [0x1 1 [17 14] 4.000000 ] (HELLO)
r 1.008750745 _13_ RTR  --- 0 WCETT 284 [0 ffffffff 11 800] ------- [17:255 -1:255 1 0] [0x1 1 [17 14] 4.000000 ] (HELLO)
r 1.011668667 _16_ RTR  --- 0 WCETT 284 [0 ffffffff 12 800] ------- [18:255 -1:255 1 0] [0x1 1 [18 14] 4.000000 ] (HELLO)
r 1.011668667 _17_ RTR  --- 0 WCETT 284 [0 ffffffff 12 800] ------- [18:255 -1:255 1 0] [0x1 1 [18 14] 4.000000 ] (HELLO)