n -t * -s 0  -x 100 -y 0 -Z 0 -z 30  -v circle -c black
n -t * -s 1  -x 300 -y 0 -Z 0 -z 30  -v circle -c black
n -t * -s 2  -x 500 -y 0 -Z 0 -z 30  -v circle -c black
n -t * -s 3  -x 100 -y 100 -Z 0 -z 30  -v circle -c black
n -t * -s 4  -x 300 -y 100 -Z 0 -z 30  -v circle -c black
n -t * -s 5  -x 500 -y 100 -Z 0 -z 30  -v circle -c black
n -t * -s 6  -x 100 -y 200 -Z 0 -z 30  -v circle -c black
n -t * -s 7  -x 300 -y 200 -Z 0 -z 30  -v circle -c black
n -t * -s 8  -x 500 -y 200 -Z 0 -z 30  -v circle -c black
n -t * -s 9  -x 100 -y 300 -Z 0 -z 30  -v circle -c black
n -t * -s 10  -x 300 -y 300 -Z 0 -z 30  -v circle -c black
n -t * -s 11  -x 500 -y 300 -Z 0 -z 30  -v circle -c black
n -t * -s 12  -x 100 -y 400 -Z 0 -z 30  -v circle -c black
n -t * -s 13  -x 300 -y 400 -Z 0 -z 30  -v circle -c black
n -t * -s 14  -x 500 -y 400 -Z 0 -z 30  -v circle -c black
n -t * -s 15  -x 100 -y 500 -Z 0 -z 30  -v circle -c black
n -t * -s 16  -x 300 -y 500 -Z 0 -z 30  -v circle -c black
n -t * -s 17  -x 500 -y 500 -Z 0 -z 30  -v circle -c black
V -t * -v 1.0a5 -a 0
W -t * -x 500 -y 500
A -t * -n 1 -p 0 -o 0xffffffff -c 31 -a 1
A -t * -h 1 -m 2147483647 -s 0
+ -t 15.000000000 -s 0 -d -1 -p cbr -e 512 -c 2 -a 0 -i 0 -k AGT 
- -t 15.000000000 -s 0 -d -1 -p cbr -e 512 -c 2 -a 0 -i 0 -k AGT
h -t 15.000000000 -s 0 -d -1 -p cbr -e 512 -c 2 -a 0 -i 0 -k AGT
+ -t 15.007183001 -s 0 -d -1 -p DSR -e 32 -c 2 -a 0 -i 1 -k RTR 
- -t 15.007183001 -s 0 -d -1 -p DSR -e 32 -c 2 -a 0 -i 1 -k RTR
h -t 15.007183001 -s 0 -d -1 -p DSR -e 32 -c 2 -a 0 -i 1 -k RTR
+ -t 15.035687203 -s 0 -d -1 -p cbr -e 512 -c 2 -a 0 -i 2 -k AGT 
- -t 15.035687203 -s 0 -d -1 -p cbr -e 512 -c 2 -a 0 -i 2 -k AGT
h -t 15.035687203 -s 0 -d -1 -p cbr -e 512 -c 2 -a 0 -i 2 -k AGT
+ -t 15.044337435 -s 0 -d -1 -p DSR -e 32 -c 2 -a 0 -i 3 -k RTR 
- -t 15.044337435 -s 0 -d -1 -p DSR -e 32 -c 2 -a 0 -i 3 -k RTR
h -t 15.044337435 -s 0 -d -1 -p DSR -e 32 -c 2 -a 0 -i 3 -k RTR
+ -t 15.045691810 -s 4 -d -1 -p DSR -e 48 -c 2 -a 0 -i 3 -k RTR 
- -t 15.045691810 -s 4 -d -1 -p DSR -e 48 -c 2 -a 0 -i 3 -k RTR
h -t 15.045691810 -s 4 -d -1 -p DSR -e 48 -c 2 -a 0 -i 3 -k RTR
+ -t 15.047371487 -s 6 -d -1 -p DSR -e 48 -c 2 -a 0 -i 3 -k RTR 
- -t 15.047371487 -s 6 -d -1 -p DSR -e 48 -c 2 -a 0 -i 3 -k RTR
h -t 15.047371487 -s 6 -d -1 -p DSR -e 48 -c 2 -a 0 -i 3 -k RTR
+ -t 15.047433015 -s 1 -d -1 -p DSR -e 48 -c 2 -a 0 -i 3 -k RTR 
- -t 15.047433015 -s 1 -d -1 -p DSR -e 48 -c 2 -a 0 -i 3 -k RTR
h -t 15.047433015 -s 1 -d -1 -p DSR -e 48 -c 2 -a 0 -i 3 -k RTR
+ -t 15.048202781 -s 8 -d -1 -p DSR -e 68 -c 2 -a 0 -i 3 -k RTR 
- -t 15.048202781 -s 8 -d -1 -p DSR -e 68 -c 2 -a 0 -i 3 -k RTR
h -t 15.048202781 -s 8 -d -1 -p DSR -e 68 -c 2 -a 0 -i 3 -k RTR
+ -t 15.049244711 -s 10 -d -1 -p DSR -e 68 -c 2 -a 0 -i 3 -k RTR 
- -t 15.049244711 -s 10 -d -1 -p DSR -e 68 -c 2 -a 0 -i 3 -k RTR
h -t 15.049244711 -s 10 -d -1 -p DSR -e 68 -c 2 -a 0 -i 3 -k RTR
+ -t 15.050436702 -s 11 -d -1 -p DSR -e 92 -c 2 -a 0 -i 3 -k RTR 
- -t 15.050436702 -s 11 -d -1 -p DSR -e 92 -c 2 -a 0 -i 3 -k RTR
h -t 15.050436702 -s 11 -d -1 -p DSR -e 92 -c 2 -a 0 -i 3 -k RTR
+ -t 15.050635685 -s 7 -d -1 -p DSR -e 68 -c 2 -a 0 -i 3 -k RTR 
- -t 15.050635685 -s 7 -d -1 -p DSR -e 68 -c 2 -a 0 -i 3 -k RTR
h -t 15.050635685 -s 7 -d -1 -p DSR -e 68 -c 2 -a 0 -i 3 -k RTR
+ -t 15.051923556 -s 3 -d -1 -p DSR -e 48 -c 2 -a 0 -i 3 -k RTR 
- -t 15.051923556 -s 3 -d -1 -p DSR -e 48 -c 2 -a 0 -i 3 -k RTR
h -t 15.051923556 -s 3 -d -1 -p DSR -e 48 -c 2 -a 0 -i 3 -k RTR
+ -t 15.052741961 -s 16 -d 10 -p DSR -e 60 -c 2 -a 0 -i 6 -k RTR 
- -t 15.052741961 -s 16 -d 10 -p DSR -e 60 -c 2 -a 0 -i 6 -k RTR
h -t 15.052741961 -s 16 -d 10 -p DSR -e 60 -c 2 -a 0 -i 6 -k RTR
+ -t 15.055739730 -s 2 -d -1 -p DSR -e 68 -c 2 -a 0 -i 3 -k RTR 
- -t 15.055739730 -s 2 -d -1 -p DSR -e 68 -c 2 -a 0 -i 3 -k RTR
h -t 15.055739730 -s 2 -d -1 -p DSR -e 68 -c 2 -a 0 -i 3 -k RTR
+ -t 15.056234848 -s 5 -d -1 -p DSR -e 68 -c 2 -a 0 -i 3 -k RTR 
- -t 15.056234848 -s 5 -d -1 -p DSR -e 68 -c 2 -a 0 -i 3 -k RTR
h -t 15.056234848 -s 5 -d -1 -p DSR -e 68 -c 2 -a 0 -i 3 -k RTR
+ -t 15.056411120 -s 14 -d -1 -p DSR -e 92 -c 2 -a 0 -i 3 -k RTR 
- -t 15.056411120 -s 14 -d -1 -p DSR -e 92 -c 2 -a 0 -i 3 -k RTR
h -t 15.056411120 -s 14 -d -1 -p DSR -e 92 -c 2 -a 0 -i 3 -k RTR
+ -t 15.059161274 -s 9 -d -1 -p DSR -e 92 -c 2 -a 0 -i 3 -k RTR 
- -t 15.059161274 -s 9 -d -1 -p DSR -e 92 -c 2 -a 0 -i 3 -k RTR
h -t 15.059161274 -s 9 -d -1 -p DSR -e 92 -c 2 -a 0 -i 3 -k RTR
+ -t 15.059991358 -s 12 -d -1 -p DSR -e 92 -c 2 -a 0 -i 3 -k RTR 
- -t 15.059991358 -s 12 -d -1 -p DSR -e 92 -c 2 -a 0 -i 3 -k RTR
h -t 15.059991358 -s 12 -d -1 -p DSR -e 92 -c 2 -a 0 -i 3 -k RTR
+ -t 15.060563003 -s 17 -d -1 -p DSR -e 120 -c 2 -a 0 -i 3 -k RTR 
- -t 15.060563003 -s 17 -d -1 -p DSR -e 120 -c 2 -a 0 -i 3 -k RTR
h -t 15.060563003 -s 17 -d -1 -p DSR -e 120 -c 2 -a 0 -i 3 -k RTR
+ -t 15.060834976 -s 10 -d 4 -p DSR -e 60 -c 2 -a 0 -i 6 -k RTR 
- -t 15.060834976 -s 10 -d 4 -p DSR -e 60 -c 2 -a 0 -i 6 -k RTR
h -t 15.060834976 -s 10 -d 4 -p DSR -e 60 -c 2 -a 0 -i 6 -k RTR
+ -t 15.061078665 -s 13 -d -1 -p DSR -e 92 -c 2 -a 0 -i 3 -k RTR 
- -t 15.061078665 -s 13 -d -1 -p DSR -e 92 -c 2 -a 0 -i 3 -k RTR
h -t 15.061078665 -s 13 -d -1 -p DSR -e 92 -c 2 -a 0 -i 3 -k RTR
+ -t 15.062421919 -s 15 -d 9 -p DSR -e 72 -c 2 -a 0 -i 7 -k RTR 
- -t 15.062421919 -s 15 -d 9 -p DSR -e 72 -c 2 -a 0 -i 7 -k RTR
h -t 15.062421919 -s 15 -d 9 -p DSR -e 72 -c 2 -a 0 -i 7 -k RTR
+ -t 15.064351919 -s 9 -d 10 -p DSR -e 72 -c 2 -a 0 -i 7 -k RTR 
- -t 15.064351919 -s 9 -d 10 -p DSR -e 72 -c 2 -a 0 -i 7 -k RTR
h -t 15.064351919 -s 9 -d 10 -p DSR -e 72 -c 2 -a 0 -i 7 -k RTR
+ -t 15.069395665 -s 10 -d 4 -p DSR -e 72 -c 2 -a 0 -i 7 -k RTR 
- -t 15.069395665 -s 10 -d 4 -p DSR -e 72 -c 2 -a 0 -i 7 -k RTR
h -t 15.069395665 -s 10 -d 4 -p DSR -e 72 -c 2 -a 0 -i 7 -k RTR
+ -t 15.070675816 -s 16 -d 12 -p DSR -e 68 -c 2 -a 0 -i 8 -k RTR 
- -t 15.070675816 -s 16 -d 12 -p DSR -e 68 -c 2 -a 0 -i 8 -k RTR
h -t 15.070675816 -s 16 -d 12 -p DSR -e 68 -c 2 -a 0 -i 8 -k RTR
+ -t 15.071202017 -s 16 -d 13 -p DSR -e 68 -c 2 -a 0 -i 9 -k RTR 
- -t 15.071202017 -s 16 -d 13 -p DSR -e 68 -c 2 -a 0 -i 9 -k RTR
h -t 15.071202017 -s 16 -d 13 -p DSR -e 68 -c 2 -a 0 -i 9 -k RTR
+ -t 15.072871354 -s 12 -d 10 -p DSR -e 68 -c 2 -a 0 -i 8 -k RTR 
- -t 15.072871354 -s 12 -d 10 -p DSR -e 68 -c 2 -a 0 -i 8 -k RTR
h -t 15.072871354 -s 12 -d 10 -p DSR -e 68 -c 2 -a 0 -i 8 -k RTR
+ -t 15.075033590 -s 10 -d 4 -p DSR -e 68 -c 2 -a 0 -i 8 -k RTR 
- -t 15.075033590 -s 10 -d 4 -p DSR -e 68 -c 2 -a 0 -i 8 -k RTR
h -t 15.075033590 -s 10 -d 4 -p DSR -e 68 -c 2 -a 0 -i 8 -k RTR
+ -t 15.077211590 -s 4 -d 0 -p DSR -e 60 -c 2 -a 0 -i 6 -k RTR 
- -t 15.077211590 -s 4 -d 0 -p DSR -e 60 -c 2 -a 0 -i 6 -k RTR
h -t 15.077211590 -s 4 -d 0 -p DSR -e 60 -c 2 -a 0 -i 6 -k RTR
+ -t 15.079309826 -s 0 -d 4 -p cbr -e 556 -c 2 -a 0 -i 0 -k RTR 
- -t 15.079309826 -s 0 -d 4 -p cbr -e 556 -c 2 -a 0 -i 0 -k RTR
h -t 15.079309826 -s 0 -d 4 -p cbr -e 556 -c 2 -a 0 -i 0 -k RTR
+ -t 15.080241860 -s 16 -d 14 -p DSR -e 68 -c 2 -a 0 -i 10 -k RTR 
- -t 15.080241860 -s 16 -d 14 -p DSR -e 68 -c 2 -a 0 -i 10 -k RTR
h -t 15.080241860 -s 16 -d 14 -p DSR -e 68 -c 2 -a 0 -i 10 -k RTR
+ -t 15.083373514 -s 4 -d 0 -p DSR -e 68 -c 2 -a 0 -i 8 -k RTR 
- -t 15.083373514 -s 4 -d 0 -p DSR -e 68 -c 2 -a 0 -i 8 -k RTR
h -t 15.083373514 -s 4 -d 0 -p DSR -e 68 -c 2 -a 0 -i 8 -k RTR
+ -t 15.089550285 -s 4 -d 10 -p cbr -e 556 -c 2 -a 0 -i 0 -k RTR 
- -t 15.089550285 -s 4 -d 10 -p cbr -e 556 -c 2 -a 0 -i 0 -k RTR
h -t 15.089550285 -s 4 -d 10 -p cbr -e 556 -c 2 -a 0 -i 0 -k RTR
+ -t 15.097699267 -s 10 -d 16 -p cbr -e 556 -c 2 -a 0 -i 0 -k RTR 
- -t 15.097699267 -s 10 -d 16 -p cbr -e 556 -c 2 -a 0 -i 0 -k RTR
h -t 15.097699267 -s 10 -d 16 -p cbr -e 556 -c 2 -a 0 -i 0 -k RTR
+ -t 15.099518629 -s 0 -d -1 -p cbr -e 512 -c 2 -a 0 -i 11 -k AGT 
- -t 15.099518629 -s 0 -d -1 -p cbr -e 512 -c 2 -a 0 -i 11 -k AGT
h -t 15.099518629 -s 0 -d -1 -p cbr -e 512 -c 2 -a 0 -i 11 -k AGT
+ -t 15.099518629 -s 0 -d 4 -p cbr -e 556 -c 2 -a 0 -i 11 -k RTR 
- -t 15.099518629 -s 0 -d 4 -p cbr -e 556 -c 2 -a 0 -i 11 -k RTR
h -t 15.099518629 -s 0 -d 4 -p cbr -e 556 -c 2 -a 0 -i 11 -k RTR
+ -t 15.099810933 -s 13 -d 10 -p DSR -e 68 -c 2 -a 0 -i 9 -k RTR 
- -t 15.099810933 -s 13 -d 10 -p DSR -e 68 -c 2 -a 0 -i 9 -k RTR
h -t 15.099810933 -s 13 -d 10 -p DSR -e 68 -c 2 -a 0 -i 9 -k RTR
+ -t 15.101885267 -s 4 -d 0 -p DSR -e 72 -c 2 -a 0 -i 7 -k RTR 
- -t 15.101885267 -s 4 -d 0 -p DSR -e 72 -c 2 -a 0 -i 7 -k RTR
h -t 15.101885267 -s 4 -d 0 -p DSR -e 72 -c 2 -a 0 -i 7 -k RTR
r -t 15.107791933 -s 16 -d 16 -p cbr -e 512 -c 2 -a 0 -i 0 -k AGT
+ -t 15.109309826 -s 0 -d 4 -p cbr -e 556 -c 2 -a 0 -i 2 -k RTR 
- -t 15.109309826 -s 0 -d 4 -p cbr -e 556 -c 2 -a 0 -i 2 -k RTR
h -t 15.109309826 -s 0 -d 4 -p cbr -e 556 -c 2 -a 0 -i 2 -k RTR
+ -t 15.109894169 -s 14 -d 8 -p DSR -e 68 -c 2 -a 0 -i 10 -k RTR 
- -t 15.109894169 -s 14 -d 8 -p DSR -e 68 -c 2 -a 0 -i 10 -k RTR
h -t 15.109894169 -s 14 -d 8 -p DSR -e 68 -c 2 -a 0 -i 10 -k RTR
+ -t 15.116832691 -s 10 -d 4 -p DSR -e 68 -c 2 -a 0 -i 9 -k RTR 
- -t 15.116832691 -s 10 -d 4 -p DSR -e 68 -c 2 -a 0 -i 9 -k RTR
h -t 15.116832691 -s 10 -d 4 -p DSR -e 68 -c 2 -a 0 -i 9 -k RTR
+ -t 15.119274691 -s 4 -d 0 -p DSR -e 68 -c 2 -a 0 -i 9 -k RTR 
- -t 15.119274691 -s 4 -d 0 -p DSR -e 68 -c 2 -a 0 -i 9 -k RTR
h -t 15.119274691 -s 4 -d 0 -p DSR -e 68 -c 2 -a 0 -i 9 -k RTR
+ -t 15.124029384 -s 8 -d 4 -p DSR -e 68 -c 2 -a 0 -i 10 -k RTR 
- -t 15.124029384 -s 8 -d 4 -p DSR -e 68 -c 2 -a 0 -i 10 -k RTR
h -t 15.124029384 -s 8 -d 4 -p DSR -e 68 -c 2 -a 0 -i 10 -k RTR
+ -t 15.126119268 -s 4 -d 0 -p DSR -e 68 -c 2 -a 0 -i 10 -k RTR 
- -t 15.126119268 -s 4 -d 0 -p DSR -e 68 -c 2 -a 0 -i 10 -k RTR
h -t 15.126119268 -s 4 -d 0 -p DSR -e 68 -c 2 -a 0 -i 10 -k RTR
+ -t 15.134347740 -s 4 -d 10 -p cbr -e 556 -c 2 -a 0 -i 11 -k RTR 
- -t 15.134347740 -s 4 -d 10 -p cbr -e 556 -c 2 -a 0 -i 11 -k RTR
h -t 15.134347740 -s 4 -d 10 -p cbr -e 556 -c 2 -a 0 -i 11 -k RTR
+ -t 15.140274722 -s 4 -d 10 -p cbr -e 556 -c 2 -a 0 -i 2 -k RTR 
- -t 15.140274722 -s 4 -d 10 -p cbr -e 556 -c 2 -a 0 -i 2 -k RTR
h -t 15.140274722 -s 4 -d 10 -p cbr -e 556 -c 2 -a 0 -i 2 -k RTR
+ -t 15.146260722 -s 10 -d 16 -p cbr -e 556 -c 2 -a 0 -i 11 -k RTR 
- -t 15.146260722 -s 10 -d 16 -p cbr -e 556 -c 2 -a 0 -i 11 -k RTR
h -t 15.146260722 -s 10 -d 16 -p cbr -e 556 -c 2 -a 0 -i 11 -k RTR
r -t 15.152586722 -s 16 -d 16 -p cbr -e 512 -c 2 -a 0 -i 11 -k AGT
+ -t 15.154420394 -s 0 -d -1 -p cbr -e 512 -c 2 -a 0 -i 12 -k AGT 
- -t 15.154420394 -s 0 -d -1 -p cbr -e 512 -c 2 -a 0 -i 12 -k AGT
h -t 15.154420394 -s 0 -d -1 -p cbr -e 512 -c 2 -a 0 -i 12 -k AGT
+ -t 15.154420394 -s 0 -d 4 -p cbr -e 532 -c 2 -a 0 -i 12 -k RTR 
- -t 15.154420394 -s 0 -d 4 -p cbr -e 532 -c 2 -a 0 -i 12 -k RTR
h -t 15.154420394 -s 0 -d 4 -p cbr -e 532 -c 2 -a 0 -i 12 -k RTR
+ -t 15.158938055 -s 10 -d 16 -p cbr -e 556 -c 2 -a 0 -i 2 -k RTR 
- -t 15.158938055 -s 10 -d 16 -p cbr -e 556 -c 2 -a 0 -i 2 -k RTR
h -t 15.158938055 -s 10 -d 16 -p cbr -e 556 -c 2 -a 0 -i 2 -k RTR
r -t 15.165024055 -s 16 -d 16 -p cbr -e 512 -c 2 -a 0 -i 2 -k AGT
+ -t 15.171224086 -s 4 -d 10 -p cbr -e 532 -c 2 -a 0 -i 12 -k RTR 
- -t 15.171224086 -s 4 -d 10 -p cbr -e 532 -c 2 -a 0 -i 12 -k RTR
h -t 15.171224086 -s 4 -d 10 -p cbr -e 532 -c 2 -a 0 -i 12 -k RTR
+ -t 15.177538086 -s 10 -d 16 -p cbr -e 532 -c 2 -a 0 -i 12 -k RTR 
- -t 15.177538086 -s 10 -d 16 -p cbr -e 532 -c 2 -a 0 -i 12 -k RTR
h -t 15.177538086 -s 10 -d 16 -p cbr -e 532 -c 2 -a 0 -i 12 -k RTR
+ -t 15.181540618 -s 0 -d -1 -p cbr -e 512 -c 2 -a 0 -i 13 -k AGT 
- -t 15.181540618 -s 0 -d -1 -p cbr -e 512 -c 2 -a 0 -i 13 -k AGT
h -t 15.181540618 -s 0 -d -1 -p cbr -e 512 -c 2 -a 0 -i 13 -k AGT
+ -t 15.181540618 -s 0 -d 4 -p cbr -e 532 -c 2 -a 0 -i 13 -k RTR 
- -t 15.181540618 -s 0 -d 4 -p cbr -e 532 -c 2 -a 0 -i 13 -k RTR
h -t 15.181540618 -s 0 -d 4 -p cbr -e 532 -c 2 -a 0 -i 13 -k RTR
r -t 15.183812086 -s 16 -d 16 -p cbr -e 512 -c 2 -a 0 -i 12 -k AGT
+ -t 15.190272117 -s 4 -d 10 -p cbr -e 532 -c 2 -a 0 -i 13 -k RTR 
- -t 15.190272117 -s 4 -d 10 -p cbr -e 532 -c 2 -a 0 -i 13 -k RTR
h -t 15.190272117 -s 4 -d 10 -p cbr -e 532 -c 2 -a 0 -i 13 -k RTR
+ -t 15.196406117 -s 10 -d 16 -p cbr -e 532 -c 2 -a 0 -i 13 -k RTR 
- -t 15.196406117 -s 10 -d 16 -p cbr -e 532 -c 2 -a 0 -i 13 -k RTR
h -t 15.196406117 -s 10 -d 16 -p cbr -e 532 -c 2 -a 0 -i 13 -k RTR
r -t 15.202600117 -s 16 -d 16 -p cbr -e 512 -c 2 -a 0 -i 13 -k AGT
+ -t 15.232129358 -s 0 -d -1 -p cbr -e 512 -c 2 -a 0 -i 14 -k AGT 
- -t 15.232129358 -s 0 -d -1 -p cbr -e 512 -c 2 -a 0 -i 14 -k AGT
h -t 15.232129358 -s 0 -d -1 -p cbr -e 512 -c 2 -a 0 -i 14 -k AGT
+ -t 15.232129358 -s 0 -d 4 -p cbr -e 532 -c 2 -a 0 -i 14 -k RTR 
- -t 15.232129358 -s 0 -d 4 -p cbr -e 532 -c 2 -a 0 -i 14 -k RTR
h -t 15.232129358 -s 0 -d 4 -p cbr -e 532 -c 2 -a 0 -i 14 -k RTR
+ -t 15.237759594 -s 4 -d 10 -p cbr -e 532 -c 2 -a 0 -i 14 -k RTR 
- -t 15.237759594 -s 4 -d 10 -p cbr -e 532 -c 2 -a 0 -i 14 -k RTR
h -t 15.237759594 -s 4 -d 10 -p cbr -e 532 -c 2 -a 0 -i 14 -k RTR
+ -t 15.243553594 -s 10 -d 16 -p cbr -e 532 -c 2 -a 0 -i 14 -k RTR 
- -t 15.243553594 -s 10 -d 16 -p cbr -e 532 -c 2 -a 0 -i 14 -k RTR
h -t 15.243553594 -s 10 -d 16 -p cbr -e 532 -c 2 -a 0 -i 14 -k RTR
r -t 15.249667594 -s 16 -d 16 -p cbr -e 512 -c 2 -a 0 -i 14 -k AGT
+ -t 15.271733256 -s 0 -d -1 -p cbr -e 512 -c 2 -a 0 -i 15 -k AGT 
- -t 15.271733256 -s 0 -d -1 -p cbr -e 512 -c 2 -a 0 -i 15 -k AGT
h -t 15.271733256 -s 0 -d -1 -p cbr -e 512 -c 2 -a 0 -i 15 -k AGT
+ -t 15.271733256 -s 0 -d 4 -p cbr -e 532 -c 2 -a 0 -i 15 -k RTR 
- -t 15.271733256 -s 0 -d 4 -p cbr -e 532 -c 2 -a 0 -i 15 -k RTR
h -t 15.271733256 -s 0 -d 4 -p cbr -e 532 -c 2 -a 0 -i 15 -k RTR
+ -t 15.277743492 -s 4 -d 10 -p cbr -e 532 -c 2 -a 0 -i 15 -k RTR 
- -t 15.277743492 -s 4 -d 10 -p cbr -e 532 -c 2 -a 0 -i 15 -k RTR
h -t 15.277743492 -s 4 -d 10 -p cbr -e 532 -c 2 -a 0 -i 15 -k RTR
+ -t 15.283477492 -s 10 -d 16 -p cbr -e 532 -c 2 -a 0 -i 15 -k RTR 
- -t 15.283477492 -s 10 -d 16 -p cbr -e 532 -c 2 -a 0 -i 15 -k RTR
h -t 15.283477492 -s 10 -d 16 -p cbr -e 532 -c 2 -a 0 -i 15 -k RTR
r -t 15.289411492 -s 16 -d 16 -p cbr -e 512 -c 2 -a 0 -i 15 -k AGT
+ -t 15.328075393 -s 0 -d -1 -p cbr -e 512 -c 2 -a 0 -i 16 -k AGT 
- -t 15.328075393 -s 0 -d -1 -p cbr -e 512 -c 2 -a 0 -i 16 -k AGT
h -t 15.328075393 -s 0 -d -1 -p cbr -e 512 -c 2 -a 0 -i 16 -k AGT
+ -t 15.328075393 -s 0 -d 4 -p cbr -e 532 -c 2 -a 0 -i 16 -k RTR 
- -t 15.328075393 -s 0 -d 4 -p cbr -e 532 -c 2 -a 0 -i 16 -k RTR
h -t 15.328075393 -s 0 -d 4 -p cbr -e 532 -c 2 -a 0 -i 16 -k RTR
+ -t 15.333525629 -s 4 -d 10 -p cbr -e 532 -c 2 -a 0 -i 16 -k RTR 
- -t 15.333525629 -s 4 -d 10 -p cbr -e 532 -c 2 -a 0 -i 16 -k RTR
h -t 15.333525629 -s 4 -d 10 -p cbr -e 532 -c 2 -a 0 -i 16 -k RTR
+ -t 15.339619629 -s 10 -d 16 -p cbr -e 532 -c 2 -a 0 -i 16 -k RTR 
- -t 15.339619629 -s 10 -d 16 -p cbr -e 532 -c 2 -a 0 -i 16 -k RTR
h -t 15.339619629 -s 10 -d 16 -p cbr -e 532 -c 2 -a 0 -i 16 -k RTR
r -t 15.345373629 -s 16 -d 16 -p cbr -e 512 -c 2 -a 0 -i 16 -k AGT
+ -t 15.367783007 -s 0 -d -1 -p cbr -e 512 -c 2 -a 0 -i 17 -k AGT 
- -t 15.367783007 -s 0 -d -1 -p cbr -e 512 -c 2 -a 0 -i 17 -k AGT
h -t 15.367783007 -s 0 -d -1 -p cbr -e 512 -c 2 -a 0 -i 17 -k AGT
+ -t 15.367783007 -s 0 -d 4 -p cbr -e 532 -c 2 -a 0 -i 17 -k RTR 
- -t 15.367783007 -s 0 -d 4 -p cbr -e 532 -c 2 -a 0 -i 17 -k RTR
h -t 15.367783007 -s 0 -d 4 -p cbr -e 532 -c 2 -a 0 -i 17 -k RTR
+ -t 15.373793243 -s 4 -d 10 -p cbr -e 532 -c 2 -a 0 -i 17 -k RTR 
- -t 15.373793243 -s 4 -d 10 -p cbr -e 532 -c 2 -a 0 -i 17 -k RTR
h -t 15.373793243 -s 4 -d 10 -p cbr -e 532 -c 2 -a 0 -i 17 -k RTR
+ -t 15.380007243 -s 10 -d 16 -p cbr -e 532 -c 2 -a 0 -i 17 -k RTR 
- -t 15.380007243 -s 10 -d 16 -p cbr -e 532 -c 2 -a 0 -i 17 -k RTR
h -t 15.380007243 -s 10 -d 16 -p cbr -e 532 -c 2 -a 0 -i 17 -k RTR
r -t 15.386001243 -s 16 -d 16 -p cbr -e 512 -c 2 -a 0 -i 17 -k AGT
+ -t 15.410650289 -s 0 -d -1 -p cbr -e 512 -c 2 -a 0 -i 18 -k AGT 
- -t 15.410650289 -s 0 -d -1 -p cbr -e 512 -c 2 -a 0 -i 18 -k AGT
h -t 15.410650289 -s 0 -d -1 -p cbr -e 512 -c 2 -a 0 -i 18 -k AGT
+ -t 15.410650289 -s 0 -d 4 -p cbr -e 532 -c 2 -a 0 -i 18 -k RTR 
- -t 15.410650289 -s 0 -d 4 -p cbr -e 532 -c 2 -a 0 -i 18 -k RTR
h -t 15.410650289 -s 0 -d 4 -p cbr -e 532 -c 2 -a 0 -i 18 -k RTR
+ -t 15.416160525 -s 4 -d 10 -p cbr -e 532 -c 2 -a 0 -i 18 -k RTR 
- -t 15.416160525 -s 4 -d 10 -p cbr -e 532 -c 2 -a 0 -i 18 -k RTR
h -t 15.416160525 -s 4 -d 10 -p cbr -e 532 -c 2 -a 0 -i 18 -k RTR
+ -t 15.422314525 -s 10 -d 16 -p cbr -e 532 -c 2 -a 0 -i 18 -k RTR 
- -t 15.422314525 -s 10 -d 16 -p cbr -e 532 -c 2 -a 0 -i 18 -k RTR
h -t 15.422314525 -s 10 -d 16 -p cbr -e 532 -c 2 -a 0 -i 18 -k RTR
r -t 15.428108525 -s 16 -d 16 -p cbr -e 512 -c 2 -a 0 -i 18 -k AGT
+ -t 15.453338136 -s 0 -d -1 -p cbr -e 512 -c 2 -a 0 -i 19 -k AGT 
- -t 15.453338136 -s 0 -d -1 -p cbr -e 512 -c 2 -a 0 -i 19 -k AGT
h -t 15.453338136 -s 0 -d -1 -p cbr -e 512 -c 2 -a 0 -i 19 -k AGT
+ -t 15.453338136 -s 0 -d 4 -p cbr -e 532 -c 2 -a 0 -i 19 -k RTR 
- -t 15.453338136 -s 0 -d 4 -p cbr -e 532 -c 2 -a 0 -i 19 -k RTR
h -t 15.453338136 -s 0 -d 4 -p cbr -e 532 -c 2 -a 0 -i 19 -k RTR
+ -t 15.458948372 -s 4 -d 10 -p cbr -e 532 -c 2 -a 0 -i 19 -k RTR 
- -t 15.458948372 -s 4 -d 10 -p cbr -e 532 -c 2 -a 0 -i 19 -k RTR
h -t 15.458948372 -s 4 -d 10 -p cbr -e 532 -c 2 -a 0 -i 19 -k RTR
+ -t 15.465142372 -s 10 -d 16 -p cbr -e 532 -c 2 -a 0 -i 19 -k RTR 
- -t 15.465142372 -s 10 -d 16 -p cbr -e 532 -c 2 -a 0 -i 19 -k RTR
h -t 15.465142372 -s 10 -d 16 -p cbr -e 532 -c 2 -a 0 -i 19 -k RTR
r -t 15.471056372 -s 16 -d 16 -p cbr -e 512 -c 2 -a 0 -i 19 -k AGT
+ -t 15.482848817 -s 0 -d -1 -p cbr -e 512 -c 2 -a 0 -i 20 -k AGT 
- -t 15.482848817 -s 0 -d -1 -p cbr -e 512 -c 2 -a 0 -i 20 -k AGT
h -t 15.482848817 -s 0 -d -1 -p cbr -e 512 -c 2 -a 0 -i 20 -k AGT
+ -t 15.482848817 -s 0 -d 4 -p cbr -e 532 -c 2 -a 0 -i 20 -k RTR 
- -t 15.482848817 -s 0 -d 4 -p cbr -e 532 -c 2 -a 0 -i 20 -k RTR
h -t 15.482848817 -s 0 -d 4 -p cbr -e 532 -c 2 -a 0 -i 20 -k RTR
+ -t 15.488799053 -s 4 -d 10 -p cbr -e 532 -c 2 -a 0 -i 20 -k RTR 
- -t 15.488799053 -s 4 -d 10 -p cbr -e 532 -c 2 -a 0 -i 20 -k RTR
h -t 15.488799053 -s 4 -d 10 -p cbr -e 532 -c 2 -a 0 -i 20 -k RTR
+ -t 15.494913053 -s 10 -d 16 -p cbr -e 532 -c 2 -a 0 -i 20 -k RTR 
- -t 15.494913053 -s 10 -d 16 -p cbr -e 532 -c 2 -a 0 -i 20 -k RTR
h -t 15.494913053 -s 10 -d 16 -p cbr -e 532 -c 2 -a 0 -i 20 -k RTR
r -t 15.500787053 -s 16 -d 16 -p cbr -e 512 -c 2 -a 0 -i 20 -k AGT
+ -t 15.538122096 -s 0 -d -1 -p cbr -e 512 -c 2 -a 0 -i 21 -k AGT 
- -t 15.538122096 -s 0 -d -1 -p cbr -e 512 -c 2 -a 0 -i 21 -k AGT
h -t 15.538122096 -s 0 -d -1 -p cbr -e 512 -c 2 -a 0 -i 21 -k AGT
+ -t 15.538122096 -s 0 -d 4 -p cbr -e 532 -c 2 -a 0 -i 21 -k RTR 
- -t 15.538122096 -s 0 -d 4 -p cbr -e 532 -c 2 -a 0 -i 21 -k RTR
h -t 15.538122096 -s 0 -d 4 -p cbr -e 532 -c 2 -a 0 -i 21 -k RTR
+ -t 15.543732332 -s 4 -d 10 -p cbr -e 532 -c 2 -a 0 -i 21 -k RTR 
- -t 15.543732332 -s 4 -d 10 -p cbr -e 532 -c 2 -a 0 -i 21 -k RTR
h -t 15.543732332 -s 4 -d 10 -p cbr -e 532 -c 2 -a 0 -i 21 -k RTR
+ -t 15.549566332 -s 10 -d 16 -p cbr -e 532 -c 2 -a 0 -i 21 -k RTR 
- -t 15.549566332 -s 10 -d 16 -p cbr -e 532 -c 2 -a 0 -i 21 -k RTR
h -t 15.549566332 -s 10 -d 16 -p cbr -e 532 -c 2 -a 0 -i 21 -k RTR
r -t 15.555420332 -s 16 -d 16 -p cbr -e 512 -c 2 -a 0 -i 21 -k AGT
+ -t 15.607640719 -s 0 -d -1 -p cbr -e 512 -c 2 -a 0 -i 22 -k AGT 
- -t 15.607640719 -s 0 -d -1 -p cbr -e 512 -c 2 -a 0 -i 22 -k AGT
h -t 15.607640719 -s 0 -d -1 -p cbr -e 512 -c 2 -a 0 -i 22 -k AGT
+ -t 15.607640719 -s 0 -d 4 -p cbr -e 532 -c 2 -a 0 -i 22 -k RTR 
- -t 15.607640719 -s 0 -d 4 -p cbr -e 532 -c 2 -a 0 -i 22 -k RTR
h -t 15.607640719 -s 0 -d 4 -p cbr -e 532 -c 2 -a 0 -i 22 -k RTR
+ -t 15.613470955 -s 4 -d 10 -p cbr -e 532 -c 2 -a 0 -i 22 -k RTR 
- -t 15.613470955 -s 4 -d 10 -p cbr -e 532 -c 2 -a 0 -i 22 -k RTR
h -t 15.613470955 -s 4 -d 10 -p cbr -e 532 -c 2 -a 0 -i 22 -k RTR
+ -t 15.619204955 -s 10 -d 16 -p cbr -e 532 -c 2 -a 0 -i 22 -k RTR 
- -t 15.619204955 -s 10 -d 16 -p cbr -e 532 -c 2 -a 0 -i 22 -k RTR
h -t 15.619204955 -s 10 -d 16 -p cbr -e 532 -c 2 -a 0 -i 22 -k RTR
r -t 15.625038955 -s 16 -d 16 -p cbr -e 512 -c 2 -a 0 -i 22 -k AGT
+ -t 15.661444830 -s 0 -d -1 -p cbr -e 512 -c 2 -a 0 -i 23 -k AGT 
- -t 15.661444830 -s 0 -d -1 -p cbr -e 512 -c 2 -a 0 -i 23 -k AGT
h -t 15.661444830 -s 0 -d -1 -p cbr -e 512 -c 2 -a 0 -i 23 -k AGT
+ -t 15.661444830 -s 0 -d 4 -p cbr -e 532 -c 2 -a 0 -i 23 -k RTR 
- -t 15.661444830 -s 0 -d 4 -p cbr -e 532 -c 2 -a 0 -i 23 -k RTR
h -t 15.661444830 -s 0 -d 4 -p cbr -e 532 -c 2 -a 0 -i 23 -k RTR
+ -t 15.667395066 -s 4 -d 10 -p cbr -e 532 -c 2 -a 0 -i 23 -k RTR 
- -t 15.667395066 -s 4 -d 10 -p cbr -e 532 -c 2 -a 0 -i 23 -k RTR
h -t 15.667395066 -s 4 -d 10 -p cbr -e 532 -c 2 -a 0 -i 23 -k RTR
+ -t 15.673349066 -s 10 -d 16 -p cbr -e 532 -c 2 -a 0 -i 23 -k RTR 
- -t 15.673349066 -s 10 -d 16 -p cbr -e 532 -c 2 -a 0 -i 23 -k RTR
h -t 15.673349066 -s 10 -d 16 -p cbr -e 532 -c 2 -a 0 -i 23 -k RTR
r -t 15.679123066 -s 16 -d 16 -p cbr -e 512 -c 2 -a 0 -i 23 -k AGT
+ -t 15.715004749 -s 0 -d -1 -p cbr -e 512 -c 2 -a 0 -i 24 -k AGT 
- -t 15.715004749 -s 0 -d -1 -p cbr -e 512 -c 2 -a 0 -i 24 -k AGT
h -t 15.715004749 -s 0 -d -1 -p cbr -e 512 -c 2 -a 0 -i 24 -k AGT
+ -t 15.715004749 -s 0 -d 4 -p cbr -e 532 -c 2 -a 0 -i 24 -k RTR 
- -t 15.715004749 -s 0 -d 4 -p cbr -e 532 -c 2 -a 0 -i 24 -k RTR
h -t 15.715004749 -s 0 -d 4 -p cbr -e 532 -c 2 -a 0 -i 24 -k RTR
+ -t 15.720674985 -s 4 -d 10 -p cbr -e 532 -c 2 -a 0 -i 24 -k RTR 
- -t 15.720674985 -s 4 -d 10 -p cbr -e 532 -c 2 -a 0 -i 24 -k RTR
h -t 15.720674985 -s 4 -d 10 -p cbr -e 532 -c 2 -a 0 -i 24 -k RTR
+ -t 15.726528985 -s 10 -d 16 -p cbr -e 532 -c 2 -a 0 -i 24 -k RTR 
- -t 15.726528985 -s 10 -d 16 -p cbr -e 532 -c 2 -a 0 -i 24 -k RTR
h -t 15.726528985 -s 10 -d 16 -p cbr -e 532 -c 2 -a 0 -i 24 -k RTR
r -t 15.732842985 -s 16 -d 16 -p cbr -e 512 -c 2 -a 0 -i 24 -k AGT
+ -t 15.751136583 -s 0 -d -1 -p cbr -e 512 -c 2 -a 0 -i 25 -k AGT 
- -t 15.751136583 -s 0 -d -1 -p cbr -e 512 -c 2 -a 0 -i 25 -k AGT
h -t 15.751136583 -s 0 -d -1 -p cbr -e 512 -c 2 -a 0 -i 25 -k AGT
+ -t 15.751136583 -s 0 -d 4 -p cbr -e 532 -c 2 -a 0 -i 25 -k RTR 
- -t 15.751136583 -s 0 -d 4 -p cbr -e 532 -c 2 -a 0 -i 25 -k RTR
h -t 15.751136583 -s 0 -d 4 -p cbr -e 532 -c 2 -a 0 -i 25 -k RTR
+ -t 15.756726819 -s 4 -d 10 -p cbr -e 532 -c 2 -a 0 -i 25 -k RTR 
- -t 15.756726819 -s 4 -d 10 -p cbr -e 532 -c 2 -a 0 -i 25 -k RTR
h -t 15.756726819 -s 4 -d 10 -p cbr -e 532 -c 2 -a 0 -i 25 -k RTR
+ -t 15.762880819 -s 10 -d 16 -p cbr -e 532 -c 2 -a 0 -i 25 -k RTR 
- -t 15.762880819 -s 10 -d 16 -p cbr -e 532 -c 2 -a 0 -i 25 -k RTR
h -t 15.762880819 -s 10 -d 16 -p cbr -e 532 -c 2 -a 0 -i 25 -k RTR
r -t 15.769174819 -s 16 -d 16 -p cbr -e 512 -c 2 -a 0 -i 25 -k AGT
+ -t 15.823530494 -s 0 -d -1 -p cbr -e 512 -c 2 -a 0 -i 26 -k AGT 
- -t 15.823530494 -s 0 -d -1 -p cbr -e 512 -c 2 -a 0 -i 26 -k AGT
h -t 15.823530494 -s 0 -d -1 -p cbr -e 512 -c 2 -a 0 -i 26 -k AGT
+ -t 15.823530494 -s 0 -d 4 -p cbr -e 532 -c 2 -a 0 -i 26 -k RTR 
- -t 15.823530494 -s 0 -d 4 -p cbr -e 532 -c 2 -a 0 -i 26 -k RTR
h -t 15.823530494 -s 0 -d 4 -p cbr -e 532 -c 2 -a 0 -i 26 -k RTR
+ -t 15.829460730 -s 4 -d 10 -p cbr -e 532 -c 2 -a 0 -i 26 -k RTR 
- -t 15.829460730 -s 4 -d 10 -p cbr -e 532 -c 2 -a 0 -i 26 -k RTR
h -t 15.829460730 -s 4 -d 10 -p cbr -e 532 -c 2 -a 0 -i 26 -k RTR
+ -t 15.835394730 -s 10 -d 16 -p cbr -e 532 -c 2 -a 0 -i 26 -k RTR 
- -t 15.835394730 -s 10 -d 16 -p cbr -e 532 -c 2 -a 0 -i 26 -k RTR
h -t 15.835394730 -s 10 -d 16 -p cbr -e 532 -c 2 -a 0 -i 26 -k RTR
r -t 15.841408730 -s 16 -d 16 -p cbr -e 512 -c 2 -a 0 -i 26 -k AGT
+ -t 15.868369312 -s 0 -d -1 -p cbr -e 512 -c 2 -a 0 -i 27 -k AGT 
- -t 15.868369312 -s 0 -d -1 -p cbr -e 512 -c 2 -a 0 -i 27 -k AGT
h -t 15.868369312 -s 0 -d -1 -p cbr -e 512 -c 2 -a 0 -i 27 -k AGT
+ -t 15.868369312 -s 0 -d 4 -p cbr -e 532 -c 2 -a 0 -i 27 -k RTR 
- -t 15.868369312 -s 0 -d 4 -p cbr -e 532 -c 2 -a 0 -i 27 -k RTR
h -t 15.868369312 -s 0 -d 4 -p cbr -e 532 -c 2 -a 0 -i 27 -k RTR
+ -t 15.873939548 -s 4 -d 10 -p cbr -e 532 -c 2 -a 0 -i 27 -k RTR 
- -t 15.873939548 -s 4 -d 10 -p cbr -e 532 -c 2 -a 0 -i 27 -k RTR
h -t 15.873939548 -s 4 -d 10 -p cbr -e 532 -c 2 -a 0 -i 27 -k RTR
+ -t 15.880133548 -s 10 -d 16 -p cbr -e 532 -c 2 -a 0 -i 27 -k RTR 
- -t 15.880133548 -s 10 -d 16 -p cbr -e 532 -c 2 -a 0 -i 27 -k RTR
h -t 15.880133548 -s 10 -d 16 -p cbr -e 532 -c 2 -a 0 -i 27 -k RTR
r -t 15.885927548 -s 16 -d 16 -p cbr -e 512 -c 2 -a 0 -i 27 -k AGT
+ -t 15.922659190 -s 0 -d -1 -p cbr -e 512 -c 2 -a 0 -i 28 -k AGT 
- -t 15.922659190 -s 0 -d -1 -p cbr -e 512 -c 2 -a 0 -i 28 -k AGT
h -t 15.922659190 -s 0 -d -1 -p cbr -e 512 -c 2 -a 0 -i 28 -k AGT
+ -t 15.922659190 -s 0 -d 4 -p cbr -e 532 -c 2 -a 0 -i 28 -k RTR 
- -t 15.922659190 -s 0 -d 4 -p cbr -e 532 -c 2 -a 0 -i 28 -k RTR
h -t 15.922659190 -s 0 -d 4 -p cbr -e 532 -c 2 -a 0 -i 28 -k RTR
+ -t 15.928149426 -s 4 -d 10 -p cbr -e 532 -c 2 -a 0 -i 28 -k RTR 
- -t 15.928149426 -s 4 -d 10 -p cbr -e 532 -c 2 -a 0 -i 28 -k RTR
h -t 15.928149426 -s 4 -d 10 -p cbr -e 532 -c 2 -a 0 -i 28 -k RTR
+ -t 15.934323426 -s 10 -d 16 -p cbr -e 532 -c 2 -a 0 -i 28 -k RTR 
- -t 15.934323426 -s 10 -d 16 -p cbr -e 532 -c 2 -a 0 -i 28 -k RTR
h -t 15.934323426 -s 10 -d 16 -p cbr -e 532 -c 2 -a 0 -i 28 -k RTR
r -t 15.940157426 -s 16 -d 16 -p cbr -e 512 -c 2 -a 0 -i 28 -k AGT
+ -t 15.950158840 -s 0 -d -1 -p cbr -e 512 -c 2 -a 0 -i 29 -k AGT 
- -t 15.950158840 -s 0 -d -1 -p cbr -e 512 -c 2 -a 0 -i 29 -k AGT
h -t 15.950158840 -s 0 -d -1 -p cbr -e 512 -c 2 -a 0 -i 29 -k AGT
+ -t 15.950158840 -s 0 -d 4 -p cbr -e 532 -c 2 -a 0 -i 29 -k RTR 
- -t 15.950158840 -s 0 -d 4 -p cbr -e 532 -c 2 -a 0 -i 29 -k RTR
h -t 15.950158840 -s 0 -d 4 -p cbr -e 532 -c 2 -a 0 -i 29 -k RTR
+ -t 15.955889076 -s 4 -d 10 -p cbr -e 532 -c 2 -a 0 -i 29 -k RTR 
- -t 15.955889076 -s 4 -d 10 -p cbr -e 532 -c 2 -a 0 -i 29 -k RTR
h -t 15.955889076 -s 4 -d 10 -p cbr -e 532 -c 2 -a 0 -i 29 -k RTR
+ -t 15.962163076 -s 10 -d 16 -p cbr -e 532 -c 2 -a 0 -i 29 -k RTR 
- -t 15.962163076 -s 10 -d 16 -p cbr -e 532 -c 2 -a 0 -i 29 -k RTR
h -t 15.962163076 -s 10 -d 16 -p cbr -e 532 -c 2 -a 0 -i 29 -k RTR
r -t 15.968217076 -s 16 -d 16 -p cbr -e 512 -c 2 -a 0 -i 29 -k AGT
+ -t 15.981877187 -s 0 -d -1 -p cbr -e 512 -c 2 -a 0 -i 30 -k AGT 
- -t 15.981877187 -s 0 -d -1 -p cbr -e 512 -c 2 -a 0 -i 30 -k AGT
h -t 15.981877187 -s 0 -d -1 -p cbr -e 512 -c 2 -a 0 -i 30 -k AGT
+ -t 15.981877187 -s 0 -d 4 -p cbr -e 532 -c 2 -a 0 -i 30 -k RTR 
- -t 15.981877187 -s 0 -d 4 -p cbr -e 532 -c 2 -a 0 -i 30 -k RTR
h -t 15.981877187 -s 0 -d 4 -p cbr -e 532 -c 2 -a 0 -i 30 -k RTR
+ -t 15.987487423 -s 4 -d 10 -p cbr -e 532 -c 2 -a 0 -i 30 -k RTR 
- -t 15.987487423 -s 4 -d 10 -p cbr -e 532 -c 2 -a 0 -i 30 -k RTR
h -t 15.987487423 -s 4 -d 10 -p cbr -e 532 -c 2 -a 0 -i 30 -k RTR
+ -t 15.993701423 -s 10 -d 16 -p cbr -e 532 -c 2 -a 0 -i 30 -k RTR 
- -t 15.993701423 -s 10 -d 16 -p cbr -e 532 -c 2 -a 0 -i 30 -k RTR
h -t 15.993701423 -s 10 -d 16 -p cbr -e 532 -c 2 -a 0 -i 30 -k RTR
r -t 15.999715423 -s 16 -d 16 -p cbr -e 512 -c 2 -a 0 -i 30 -k AGT
+ -t 16.028307929 -s 0 -d -1 -p cbr -e 512 -c 2 -a 0 -i 31 -k AGT 
- -t 16.028307929 -s 0 -d -1 -p cbr -e 512 -c 2 -a 0 -i 31 -k AGT
h -t 16.028307929 -s 0 -d -1 -p cbr -e 512 -c 2 -a 0 -i 31 -k AGT
+ -t 16.028307929 -s 0 -d 4 -p cbr -e 532 -c 2 -a 0 -i 31 -k RTR 
- -t 16.028307929 -s 0 -d 4 -p cbr -e 532 -c 2 -a 0 -i 31 -k RTR
h -t 16.028307929 -s 0 -d 4 -p cbr -e 532 -c 2 -a 0 -i 31 -k RTR
+ -t 16.033798165 -s 4 -d 10 -p cbr -e 532 -c 2 -a 0 -i 31 -k RTR 
- -t 16.033798165 -s 4 -d 10 -p cbr -e 532 -c 2 -a 0 -i 31 -k RTR
h -t 16.033798165 -s 4 -d 10 -p cbr -e 532 -c 2 -a 0 -i 31 -k RTR
+ -t 16.039792165 -s 10 -d 16 -p cbr -e 532 -c 2 -a 0 -i 31 -k RTR 
- -t 16.039792165 -s 10 -d 16 -p cbr -e 532 -c 2 -a 0 -i 31 -k RTR
h -t 16.039792165 -s 10 -d 16 -p cbr -e 532 -c 2 -a 0 -i 31 -k RTR
r -t 16.045806165 -s 16 -d 16 -p cbr -e 512 -c 2 -a 0 -i 31 -k AGT
+ -t 16.101144634 -s 0 -d -1 -p cbr -e 512 -c 2 -a 0 -i 32 -k AGT 
- -t 16.101144634 -s 0 -d -1 -p cbr -e 512 -c 2 -a 0 -i 32 -k AGT
h -t 16.101144634 -s 0 -d -1 -p cbr -e 512 -c 2 -a 0 -i 32 -k AGT
+ -t 16.101144634 -s 0 -d 4 -p cbr -e 532 -c 2 -a 0 -i 32 -k RTR 
- -t 16.101144634 -s 0 -d 4 -p cbr -e 532 -c 2 -a 0 -i 32 -k RTR
h -t 16.101144634 -s 0 -d 4 -p cbr -e 532 -c 2 -a 0 -i 32 -k RTR
+ -t 16.106774870 -s 4 -d 10 -p cbr -e 532 -c 2 -a 0 -i 32 -k RTR 
- -t 16.106774870 -s 4 -d 10 -p cbr -e 532 -c 2 -a 0 -i 32 -k RTR
h -t 16.106774870 -s 4 -d 10 -p cbr -e 532 -c 2 -a 0 -i 32 -k RTR
+ -t 16.112628870 -s 10 -d 16 -p cbr -e 532 -c 2 -a 0 -i 32 -k RTR 
- -t 16.112628870 -s 10 -d 16 -p cbr -e 532 -c 2 -a 0 -i 32 -k RTR
h -t 16.112628870 -s 10 -d 16 -p cbr -e 532 -c 2 -a 0 -i 32 -k RTR
r -t 16.118542870 -s 16 -d 16 -p cbr -e 512 -c 2 -a 0 -i 32 -k AGT
+ -t 16.170226548 -s 0 -d -1 -p cbr -e 512 -c 2 -a 0 -i 33 -k AGT 
- -t 16.170226548 -s 0 -d -1 -p cbr -e 512 -c 2 -a 0 -i 33 -k AGT
h -t 16.170226548 -s 0 -d -1 -p cbr -e 512 -c 2 -a 0 -i 33 -k AGT
+ -t 16.170226548 -s 0 -d 4 -p cbr -e 532 -c 2 -a 0 -i 33 -k RTR 
- -t 16.170226548 -s 0 -d 4 -p cbr -e 532 -c 2 -a 0 -i 33 -k RTR
h -t 16.170226548 -s 0 -d 4 -p cbr -e 532 -c 2 -a 0 -i 33 -k RTR
+ -t 16.176216784 -s 4 -d 10 -p cbr -e 532 -c 2 -a 0 -i 33 -k RTR 
- -t 16.176216784 -s 4 -d 10 -p cbr -e 532 -c 2 -a 0 -i 33 -k RTR
h -t 16.176216784 -s 4 -d 10 -p cbr -e 532 -c 2 -a 0 -i 33 -k RTR
+ -t 16.182070784 -s 10 -d 16 -p cbr -e 532 -c 2 -a 0 -i 33 -k RTR 
- -t 16.182070784 -s 10 -d 16 -p cbr -e 532 -c 2 -a 0 -i 33 -k RTR
h -t 16.182070784 -s 10 -d 16 -p cbr -e 532 -c 2 -a 0 -i 33 -k RTR
r -t 16.187944784 -s 16 -d 16 -p cbr -e 512 -c 2 -a 0 -i 33 -k AGT
+ -t 16.238203224 -s 0 -d -1 -p cbr -e 512 -c 2 -a 0 -i 34 -k AGT 
- -t 16.238203224 -s 0 -d -1 -p cbr -e 512 -c 2 -a 0 -i 34 -k AGT
h -t 16.238203224 -s 0 -d -1 -p cbr -e 512 -c 2 -a 0 -i 34 -k AGT
+ -t 16.238203224 -s 0 -d 4 -p cbr -e 532 -c 2 -a 0 -i 34 -k RTR 