Sconfig 0.00000 tap: on snoop: rts? on errs? on
Sconfig 0.00000 salvage: on !bd replies? on
Sconfig 0.00000 grat error: on grat reply: on
Sconfig 0.00000 $reply for props: on ring 0 search: on
Sconfig 0.00000 using MOBICACHE
s 15.000000000 _0_ AGT  --- 0 cbr 512 [0 0 0 0] ------- [0:0 19:0 32 0] [0] 0 0
r 15.000000000 _0_ RTR  --- 0 cbr 512 [0 0 0 0] ------- [0:0 19:0 32 0] [0] 0 0
s 15.000000000 _1_ AGT  --- 2 cbr 512 [0 0 0 0] ------- [1:0 21:0 32 0] [0] 0 0
r 15.000000000 _1_ RTR  --- 2 cbr 512 [0 0 0 0] ------- [1:0 21:0 32 0] [0] 0 0
s 15.000000000 _24_ AGT  --- 4 cbr 512 [0 0 0 0] ------- [24:0 25:0 32 0] [0] 0 0
r 15.000000000 _24_ RTR  --- 4 cbr 512 [0 0 0 0] ------- [24:0 25:0 32 0] [0] 0 0
s 15.001070110 _1_ RTR  --- 3 DSR 32 [0 0 0 0] ------- [1:255 21:255 32 0] 1 [1 1] [0 1 0 0->0] [0 0 0 0->0]
r 15.002162443 _4_ RTR  --- 3 DSR 32 [0 ffffffff 1 800] ------- [1:255 21:255 32 0] 1 [1 1] [0 1 0 0->0] [0 0 0 0->0]
r 15.002162443 _28_ RTR  --- 3 DSR 32 [0 ffffffff 1 800] ------- [1:255 21:255 32 0] 1 [1 1] [0 1 0 0->0] [0 0 0 0->0]
r 15.002162581 _27_ RTR  --- 3 DSR 32 [0 ffffffff 1 800] ------- [1:255 21:255 32 0] 1 [1 1] [0 1 0 0->0] [0 0 0 0->0]
r 15.002162581 _26_ RTR  --- 3 DSR 32 [0 ffffffff 1 800] ------- [1:255 21:255 32 0] 1 [1 1] [0 1 0 0->0] [0 0 0 0->0]
r 15.002162777 _0_ RTR  --- 3 DSR 32 [0 ffffffff 1 800] ------- [1:255 21:255 32 0] 1 [1 1] [0 1 0 0->0] [0 0 0 0->0]
r 15.002162777 _7_ RTR  --- 3 DSR 32 [0 ffffffff 1 800] ------- [1:255 21:255 32 0] 1 [1 1] [0 1 0 0->0] [0 0 0 0->0]
r 15.002162777 _2_ RTR  --- 3 DSR 32 [0 ffffffff 1 800] ------- [1:255 21:255 32 0] 1 [1 1] [0 1 0 0->0] [0 0 0 0->0]
r 15.002162855 _25_ RTR  --- 3 DSR 32 [0 ffffffff 1 800] ------- [1:255 21:255 32 0] 1 [1 1] [0 1 0 0->0] [0 0 0 0->0]
r 15.002162855 _3_ RTR  --- 3 DSR 32 [0 ffffffff 1 800] ------- [1:255 21:255 32 0] 1 [1 1] [0 1 0 0->0] [0 0 0 0->0]
r 15.002162855 _24_ RTR  --- 3 DSR 32 [0 ffffffff 1 800] ------- [1:255 21:255 32 0] 1 [1 1] [0 1 0 0->0] [0 0 0 0->0]
r 15.002162855 _5_ RTR  --- 3 DSR 32 [0 ffffffff 1 800] ------- [1:255 21:255 32 0] 1 [1 1] [0 1 0 0->0] [0 0 0 0->0]
s 15.002342658 _0_ RTR  --- 1 DSR 32 [0 0 0 0] ------- [0:255 19:255 32 0] 1 [1 1] [0 1 0 0->0] [0 0 0 0->0]
s 15.002883712 _24_ RTR  --- 5 DSR 32 [0 0 0 0] ------- [24:255 25:255 32 0] 1 [1 1] [0 1 0 0->0] [0 0 0 0->0]
r 15.003554991 _3_ RTR  --- 1 DSR 32 [0 ffffffff 0 800] ------- [0:255 19:255 32 0] 1 [1 1] [0 1 0 0->0] [0 0 0 0->0]
r 15.003555129 _27_ RTR  --- 1 DSR 32 [0 ffffffff 0 800] ------- [0:255 19:255 32 0] 1 [1 1] [0 1 0 0->0] [0 0 0 0->0]
r 15.003555324 _6_ RTR  --- 1 DSR 32 [0 ffffffff 0 800] ------- [0:255 19:255 32 0] 1 [1 1] [0 1 0 0->0] [0 0 0 0->0]
r 15.003555324 _1_ RTR  --- 1 DSR 32 [0 ffffffff 0 800] ------- [0:255 19:255 32 0] 1 [1 1] [0 1 0 0->0] [0 0 0 0->0]
r 15.003555403 _25_ RTR  --- 1 DSR 32 [0 ffffffff 0 800] ------- [0:255 19:255 32 0] 1 [1 1] [0 1 0 0->0] [0 0 0 0->0]
r 15.003555403 _4_ RTR  --- 1 DSR 32 [0 ffffffff 0 800] ------- [0:255 19:255 32 0] 1 [1 1] [0 1 0 0->0] [0 0 0 0->0]
r 15.004902193 _22_ RTR  --- 5 DSR 32 [0 ffffffff 18 800] ------- [24:255 25:255 32 0] 1 [1 1] [0 1 0 0->0] [0 0 0 0->0]
r 15.004902193 _7_ RTR  --- 5 DSR 32 [0 ffffffff 18 800] ------- [24:255 25:255 32 0] 1 [1 1] [0 1 0 0->0] [0 0 0 0->0]
r 15.004902193 _26_ RTR  --- 5 DSR 32 [0 ffffffff 18 800] ------- [24:255 25:255 32 0] 1 [1 1] [0 1 0 0->0] [0 0 0 0->0]
r 15.004902193 _8_ RTR  --- 5 DSR 32 [0 ffffffff 18 800] ------- [24:255 25:255 32 0] 1 [1 1] [0 1 0 0->0] [0 0 0 0->0]
r 15.004902331 _10_ RTR  --- 5 DSR 32 [0 ffffffff 18 800] ------- [24:255 25:255 32 0] 1 [1 1] [0 1 0 0->0] [0 0 0 0->0]
r 15.004902331 _4_ RTR  --- 5 DSR 32 [0 ffffffff 18 800] ------- [24:255 25:255 32 0] 1 [1 1] [0 1 0 0->0] [0 0 0 0->0]
r 15.004902331 _5_ RTR  --- 5 DSR 32 [0 ffffffff 18 800] ------- [24:255 25:255 32 0] 1 [1 1] [0 1 0 0->0] [0 0 0 0->0]
r 15.004902331 _11_ RTR  --- 5 DSR 32 [0 ffffffff 18 800] ------- [24:255 25:255 32 0] 1 [1 1] [0 1 0 0->0] [0 0 0 0->0]
r 15.004902526 _20_ RTR  --- 5 DSR 32 [0 ffffffff 18 800] ------- [24:255 25:255 32 0] 1 [1 1] [0 1 0 0->0] [0 0 0 0->0]
r 15.004902526 _25_ RTR  --- 5 DSR 32 [0 ffffffff 18 800] ------- [24:255 25:255 32 0] 1 [1 1] [0 1 0 0->0] [0 0 0 0->0]
r 15.004902526 _28_ RTR  --- 5 DSR 32 [0 ffffffff 18 800] ------- [24:255 25:255 32 0] 1 [1 1] [0 1 0 0->0] [0 0 0 0->0]
r 15.004902605 _13_ RTR  --- 5 DSR 32 [0 ffffffff 18 800] ------- [24:255 25:255 32 0] 1 [1 1] [0 1 0 0->0] [0 0 0 0->0]
r 15.004902605 _1_ RTR  --- 5 DSR 32 [0 ffffffff 18 800] ------- [24:255 25:255 32 0] 1 [1 1] [0 1 0 0->0] [0 0 0 0->0]
r 15.004902605 _27_ RTR  --- 5 DSR 32 [0 ffffffff 18 800] ------- [24:255 25:255 32 0] 1 [1 1] [0 1 0 0->0] [0 0 0 0->0]
r 15.004902605 _23_ RTR  --- 5 DSR 32 [0 ffffffff 18 800] ------- [24:255 25:255 32 0] 1 [1 1] [0 1 0 0->0] [0 0 0 0->0]
r 15.004902605 _2_ RTR  --- 5 DSR 32 [0 ffffffff 18 800] ------- [24:255 25:255 32 0] 1 [1 1] [0 1 0 0->0] [0 0 0 0->0]
r 15.004902605 _14_ RTR  --- 5 DSR 32 [0 ffffffff 18 800] ------- [24:255 25:255 32 0] 1 [1 1] [0 1 0 0->0] [0 0 0 0->0]
s 15.008599876 _25_ RTR  --- 6 DSR 44 [0 0 0 0] ------- [25:255 24:255 254 24] 2 [0 1] [1 1 2 24->25] [0 0 0 0->0]
r 15.010485876 _24_ RTR  --- 6 DSR 44 [13a 18 19 800] ------- [25:255 24:255 254 24] 2 [0 1] [1 1 2 24->25] [0 0 0 0->0]
SFESTs 15.010485876 _24_ 4 [24 -> 25] 1(1) to 25 [24 |25 ]
s 15.010485876 _24_ RTR  --- 4 cbr 548 [0 0 0 0] ------- [24:0 25:0 32 25] [0] 0 0
r 15.016487876 _25_ RTR  --- 4 cbr 548 [13a 19 18 800] ------- [24:0 25:0 32 25] [0] 1 0
r 15.016487876 _25_ AGT  --- 4 cbr 512 [13a 19 18 800] ------- [24:0 25:0 32 25] [0] 1 0
s 15.045900540 _0_ RTR  --- 8 DSR 32 [0 0 0 0] ------- [0:255 19:255 32 0] 1 [1 2] [0 2 0 0->16] [0 0 0 0->0]
r 15.047212873 _3_ RTR  --- 8 DSR 32 [0 ffffffff 0 800] ------- [0:255 19:255 32 0] 1 [1 2] [0 2 0 0->16] [0 0 0 0->0]
r 15.047213011 _27_ RTR  --- 8 DSR 32 [0 ffffffff 0 800] ------- [0:255 19:255 32 0] 1 [1 2] [0 2 0 0->16] [0 0 0 0->0]
r 15.047213206 _6_ RTR  --- 8 DSR 32 [0 ffffffff 0 800] ------- [0:255 19:255 32 0] 1 [1 2] [0 2 0 0->16] [0 0 0 0->0]
r 15.047213206 _1_ RTR  --- 8 DSR 32 [0 ffffffff 0 800] ------- [0:255 19:255 32 0] 1 [1 2] [0 2 0 0->16] [0 0 0 0->0]
r 15.047213285 _25_ RTR  --- 8 DSR 32 [0 ffffffff 0 800] ------- [0:255 19:255 32 0] 1 [1 2] [0 2 0 0->16] [0 0 0 0->0]
r 15.047213285 _4_ RTR  --- 8 DSR 32 [0 ffffffff 0 800] ------- [0:255 19:255 32 0] 1 [1 2] [0 2 0 0->16] [0 0 0 0->0]
f 15.053367893 _4_ RTR  --- 8 DSR 48 [0 ffffffff 0 800] ------- [0:255 19:255 32 0] 2 [1 2] [0 2 0 0->16] [0 0 0 0->0]
f 15.053417123 _27_ RTR  --- 8 DSR 48 [0 ffffffff 0 800] ------- [0:255 19:255 32 0] 2 [1 2] [0 2 0 0->16] [0 0 0 0->0]
f 15.053521870 _1_ RTR  --- 8 DSR 48 [0 ffffffff 0 800] ------- [0:255 19:255 32 0] 2 [1 2] [0 2 0 0->16] [0 0 0 0->0]
f 15.054009613 _3_ RTR  --- 8 DSR 48 [0 ffffffff 0 800] ------- [0:255 19:255 32 0] 2 [1 2] [0 2 0 0->16] [0 0 0 0->0]
r 15.054848226 _1_ RTR  --- 8 DSR 48 [0 ffffffff 4 800] ------- [0:255 19:255 32 0] 2 [1 2] [0 2 0 0->16] [0 0 0 0->0]
r 15.054848226 _27_ RTR  --- 8 DSR 48 [0 ffffffff 4 800] ------- [0:255 19:255 32 0] 2 [1 2] [0 2 0 0->16] [0 0 0 0->0]
r 15.054848226 _7_ RTR  --- 8 DSR 48 [0 ffffffff 4 800] ------- [0:255 19:255 32 0] 2 [1 2] [0 2 0 0->16] [0 0 0 0->0]
r 15.054848226 _26_ RTR  --- 8 DSR 48 [0 ffffffff 4 800] ------- [0:255 19:255 32 0] 2 [1 2] [0 2 0 0->16] [0 0 0 0->0]
r 15.054848364 _25_ RTR  --- 8 DSR 48 [0 ffffffff 4 800] ------- [0:255 19:255 32 0] 2 [1 2] [0 2 0 0->16] [0 0 0 0->0]
r 15.054848364 _24_ RTR  --- 8 DSR 48 [0 ffffffff 4 800] ------- [0:255 19:255 32 0] 2 [1 2] [0 2 0 0->16] [0 0 0 0->0]
r 15.054848364 _28_ RTR  --- 8 DSR 48 [0 ffffffff 4 800] ------- [0:255 19:255 32 0] 2 [1 2] [0 2 0 0->16] [0 0 0 0->0]
r 15.054848559 _3_ RTR  --- 8 DSR 48 [0 ffffffff 4 800] ------- [0:255 19:255 32 0] 2 [1 2] [0 2 0 0->16] [0 0 0 0->0]
r 15.054848559 _10_ RTR  --- 8 DSR 48 [0 ffffffff 4 800] ------- [0:255 19:255 32 0] 2 [1 2] [0 2 0 0->16] [0 0 0 0->0]
r 15.054848559 _5_ RTR  --- 8 DSR 48 [0 ffffffff 4 800] ------- [0:255 19:255 32 0] 2 [1 2] [0 2 0 0->16] [0 0 0 0->0]
r 15.054848638 _23_ RTR  --- 8 DSR 48 [0 ffffffff 4 800] ------- [0:255 19:255 32 0] 2 [1 2] [0 2 0 0->16] [0 0 0 0->0]
r 15.054848638 _6_ RTR  --- 8 DSR 48 [0 ffffffff 4 800] ------- [0:255 19:255 32 0] 2 [1 2] [0 2 0 0->16] [0 0 0 0->0]
r 15.054848638 _0_ RTR  --- 8 DSR 48 [0 ffffffff 4 800] ------- [0:255 19:255 32 0] 2 [1 2] [0 2 0 0->16] [0 0 0 0->0]
r 15.054848638 _22_ RTR  --- 8 DSR 48 [0 ffffffff 4 800] ------- [0:255 19:255 32 0] 2 [1 2] [0 2 0 0->16] [0 0 0 0->0]
r 15.054848638 _2_ RTR  --- 8 DSR 48 [0 ffffffff 4 800] ------- [0:255 19:255 32 0] 2 [1 2] [0 2 0 0->16] [0 0 0 0->0]
r 15.054848638 _8_ RTR  --- 8 DSR 48 [0 ffffffff 4 800] ------- [0:255 19:255 32 0] 2 [1 2] [0 2 0 0->16] [0 0 0 0->0]
f 15.055320779 _25_ RTR  --- 8 DSR 48 [0 ffffffff 0 800] ------- [0:255 19:255 32 0] 2 [1 2] [0 2 0 0->16] [0 0 0 0->0]
r 15.055758559 _4_ RTR  --- 8 DSR 48 [0 ffffffff 1 800] ------- [0:255 19:255 32 0] 2 [1 2] [0 2 0 0->16] [0 0 0 0->0]
r 15.055758559 _28_ RTR  --- 8 DSR 48 [0 ffffffff 1 800] ------- [0:255 19:255 32 0] 2 [1 2] [0 2 0 0->16] [0 0 0 0->0]
r 15.055758697 _27_ RTR  --- 8 DSR 48 [0 ffffffff 1 800] ------- [0:255 19:255 32 0] 2 [1 2] [0 2 0 0->16] [0 0 0 0->0]
r 15.055758697 _26_ RTR  --- 8 DSR 48 [0 ffffffff 1 800] ------- [0:255 19:255 32 0] 2 [1 2] [0 2 0 0->16] [0 0 0 0->0]
r 15.055758893 _0_ RTR  --- 8 DSR 48 [0 ffffffff 1 800] ------- [0:255 19:255 32 0] 2 [1 2] [0 2 0 0->16] [0 0 0 0->0]
r 15.055758893 _7_ RTR  --- 8 DSR 48 [0 ffffffff 1 800] ------- [0:255 19:255 32 0] 2 [1 2] [0 2 0 0->16] [0 0 0 0->0]
r 15.055758893 _2_ RTR  --- 8 DSR 48 [0 ffffffff 1 800] ------- [0:255 19:255 32 0] 2 [1 2] [0 2 0 0->16] [0 0 0 0->0]
r 15.055758971 _25_ RTR  --- 8 DSR 48 [0 ffffffff 1 800] ------- [0:255 19:255 32 0] 2 [1 2] [0 2 0 0->16] [0 0 0 0->0]
r 15.055758971 _3_ RTR  --- 8 DSR 48 [0 ffffffff 1 800] ------- [0:255 19:255 32 0] 2 [1 2] [0 2 0 0->16] [0 0 0 0->0]
r 15.055758971 _24_ RTR  --- 8 DSR 48 [0 ffffffff 1 800] ------- [0:255 19:255 32 0] 2 [1 2] [0 2 0 0->16] [0 0 0 0->0]
r 15.055758971 _5_ RTR  --- 8 DSR 48 [0 ffffffff 1 800] ------- [0:255 19:255 32 0] 2 [1 2] [0 2 0 0->16] [0 0 0 0->0]
f 15.056195222 _8_ RTR  --- 8 DSR 68 [0 ffffffff 4 800] ------- [0:255 19:255 32 0] 3 [1 2] [0 2 0 0->16] [0 0 0 0->0]
f 15.056535732 _6_ RTR  --- 8 DSR 48 [0 ffffffff 0 800] ------- [0:255 19:255 32 0] 2 [1 2] [0 2 0 0->16] [0 0 0 0->0]
r 15.056629031 _25_ RTR  --- 8 DSR 48 [0 ffffffff 1b 800] ------- [0:255 19:255 32 0] 2 [1 2] [0 2 0 0->16] [0 0 0 0->0]
r 15.056629031 _3_ RTR  --- 8 DSR 48 [0 ffffffff 1b 800] ------- [0:255 19:255 32 0] 2 [1 2] [0 2 0 0->16] [0 0 0 0->0]
r 15.056629031 _4_ RTR  --- 8 DSR 48 [0 ffffffff 1b 800] ------- [0:255 19:255 32 0] 2 [1 2] [0 2 0 0->16] [0 0 0 0->0]
r 15.056629169 _6_ RTR  --- 8 DSR 48 [0 ffffffff 1b 800] ------- [0:255 19:255 32 0] 2 [1 2] [0 2 0 0->16] [0 0 0 0->0]
r 15.056629169 _0_ RTR  --- 8 DSR 48 [0 ffffffff 1b 800] ------- [0:255 19:255 32 0] 2 [1 2] [0 2 0 0->16] [0 0 0 0->0]
r 15.056629169 _1_ RTR  --- 8 DSR 48 [0 ffffffff 1b 800] ------- [0:255 19:255 32 0] 2 [1 2] [0 2 0 0->16] [0 0 0 0->0]
r 15.056629169 _7_ RTR  --- 8 DSR 48 [0 ffffffff 1b 800] ------- [0:255 19:255 32 0] 2 [1 2] [0 2 0 0->16] [0 0 0 0->0]
r 15.056629364 _23_ RTR  --- 8 DSR 48 [0 ffffffff 1b 800] ------- [0:255 19:255 32 0] 2 [1 2] [0 2 0 0->16] [0 0 0 0->0]
r 15.056629364 _26_ RTR  --- 8 DSR 48 [0 ffffffff 1b 800] ------- [0:255 19:255 32 0] 2 [1 2] [0 2 0 0->16] [0 0 0 0->0]
r 15.056629443 _9_ RTR  --- 8 DSR 48 [0 ffffffff 1b 800] ------- [0:255 19:255 32 0] 2 [1 2] [0 2 0 0->16] [0 0 0 0->0]
r 15.056629443 _10_ RTR  --- 8 DSR 48 [0 ffffffff 1b 800] ------- [0:255 19:255 32 0] 2 [1 2] [0 2 0 0->16] [0 0 0 0->0]
r 15.056629443 _24_ RTR  --- 8 DSR 48 [0 ffffffff 1b 800] ------- [0:255 19:255 32 0] 2 [1 2] [0 2 0 0->16] [0 0 0 0->0]
r 15.056629443 _28_ RTR  --- 8 DSR 48 [0 ffffffff 1b 800] ------- [0:255 19:255 32 0] 2 [1 2] [0 2 0 0->16] [0 0 0 0->0]
f 15.057513879 _23_ RTR  --- 8 DSR 68 [0 ffffffff 4 800] ------- [0:255 19:255 32 0] 3 [1 2] [0 2 0 0->16] [0 0 0 0->0]
r 15.057519364 _0_ RTR  --- 8 DSR 48 [0 ffffffff 3 800] ------- [0:255 19:255 32 0] 2 [1 2] [0 2 0 0->16] [0 0 0 0->0]
r 15.057519364 _6_ RTR  --- 8 DSR 48 [0 ffffffff 3 800] ------- [0:255 19:255 32 0] 2 [1 2] [0 2 0 0->16] [0 0 0 0->0]
r 15.057519364 _27_ RTR  --- 8 DSR 48 [0 ffffffff 3 800] ------- [0:255 19:255 32 0] 2 [1 2] [0 2 0 0->16] [0 0 0 0->0]
r 15.057519502 _25_ RTR  --- 8 DSR 48 [0 ffffffff 3 800] ------- [0:255 19:255 32 0] 2 [1 2] [0 2 0 0->16] [0 0 0 0->0]
r 15.057519697 _9_ RTR  --- 8 DSR 48 [0 ffffffff 3 800] ------- [0:255 19:255 32 0] 2 [1 2] [0 2 0 0->16] [0 0 0 0->0]
r 15.057519697 _4_ RTR  --- 8 DSR 48 [0 ffffffff 3 800] ------- [0:255 19:255 32 0] 2 [1 2] [0 2 0 0->16] [0 0 0 0->0]
r 15.057519776 _23_ RTR  --- 8 DSR 48 [0 ffffffff 3 800] ------- [0:255 19:255 32 0] 2 [1 2] [0 2 0 0->16] [0 0 0 0->0]
r 15.057519776 _1_ RTR  --- 8 DSR 48 [0 ffffffff 3 800] ------- [0:255 19:255 32 0] 2 [1 2] [0 2 0 0->16] [0 0 0 0->0]
r 15.057519776 _7_ RTR  --- 8 DSR 48 [0 ffffffff 3 800] ------- [0:255 19:255 32 0] 2 [1 2] [0 2 0 0->16] [0 0 0 0->0]
f 15.058049512 _7_ RTR  --- 8 DSR 68 [0 ffffffff 4 800] ------- [0:255 19:255 32 0] 3 [1 2] [0 2 0 0->16] [0 0 0 0->0]
f 15.058081020 _22_ RTR  --- 8 DSR 68 [0 ffffffff 4 800] ------- [0:255 19:255 32 0] 3 [1 2] [0 2 0 0->16] [0 0 0 0->0]
f 15.058286711 _9_ RTR  --- 8 DSR 68 [0 ffffffff 1b 800] ------- [0:255 19:255 32 0] 3 [1 2] [0 2 0 0->16] [0 0 0 0->0]
r 15.058569835 _23_ RTR  --- 8 DSR 48 [0 ffffffff 19 800] ------- [0:255 19:255 32 0] 2 [1 2] [0 2 0 0->16] [0 0 0 0->0]
r 15.058569835 _6_ RTR  --- 8 DSR 48 [0 ffffffff 19 800] ------- [0:255 19:255 32 0] 2 [1 2] [0 2 0 0->16] [0 0 0 0->0]
r 15.058569835 _27_ RTR  --- 8 DSR 48 [0 ffffffff 19 800] ------- [0:255 19:255 32 0] 2 [1 2] [0 2 0 0->16] [0 0 0 0->0]
r 15.058569835 _7_ RTR  --- 8 DSR 48 [0 ffffffff 19 800] ------- [0:255 19:255 32 0] 2 [1 2] [0 2 0 0->16] [0 0 0 0->0]
r 15.058569974 _9_ RTR  --- 8 DSR 48 [0 ffffffff 19 800] ------- [0:255 19:255 32 0] 2 [1 2] [0 2 0 0->16] [0 0 0 0->0]
r 15.058569974 _3_ RTR  --- 8 DSR 48 [0 ffffffff 19 800] ------- [0:255 19:255 32 0] 2 [1 2] [0 2 0 0->16] [0 0 0 0->0]
r 15.058569974 _4_ RTR  --- 8 DSR 48 [0 ffffffff 19 800] ------- [0:255 19:255 32 0] 2 [1 2] [0 2 0 0->16] [0 0 0 0->0]
r 15.058569974 _10_ RTR  --- 8 DSR 48 [0 ffffffff 19 800] ------- [0:255 19:255 32 0] 2 [1 2] [0 2 0 0->16] [0 0 0 0->0]
r 15.058570169 _21_ RTR  --- 8 DSR 48 [0 ffffffff 19 800] ------- [0:255 19:255 32 0] 2 [1 2] [0 2 0 0->16] [0 0 0 0->0]
r 15.058570169 _24_ RTR  --- 8 DSR 48 [0 ffffffff 19 800] ------- [0:255 19:255 32 0] 2 [1 2] [0 2 0 0->16] [0 0 0 0->0]
r 15.058570248 _12_ RTR  --- 8 DSR 48 [0 ffffffff 19 800] ------- [0:255 19:255 32 0] 2 [1 2] [0 2 0 0->16] [0 0 0 0->0]
r 15.058570248 _0_ RTR  --- 8 DSR 48 [0 ffffffff 19 800] ------- [0:255 19:255 32 0] 2 [1 2] [0 2 0 0->16] [0 0 0 0->0]
r 15.058570248 _1_ RTR  --- 8 DSR 48 [0 ffffffff 19 800] ------- [0:255 19:255 32 0] 2 [1 2] [0 2 0 0->16] [0 0 0 0->0]
r 15.058570248 _13_ RTR  --- 8 DSR 48 [0 ffffffff 19 800] ------- [0:255 19:255 32 0] 2 [1 2] [0 2 0 0->16] [0 0 0 0->0]
r 15.058570248 _22_ RTR  --- 8 DSR 48 [0 ffffffff 19 800] ------- [0:255 19:255 32 0] 2 [1 2] [0 2 0 0->16] [0 0 0 0->0]
r 15.058570248 _26_ RTR  --- 8 DSR 48 [0 ffffffff 19 800] ------- [0:255 19:255 32 0] 2 [1 2] [0 2 0 0->16] [0 0 0 0->0]
r 15.059600307 _6_ RTR  --- 8 DSR 68 [0 ffffffff 9 800] ------- [0:255 19:255 32 0] 3 [1 2] [0 2 0 0->16] [0 0 0 0->0]
r 15.059600307 _12_ RTR  --- 8 DSR 68 [0 ffffffff 9 800] ------- [0:255 19:255 32 0] 3 [1 2] [0 2 0 0->16] [0 0 0 0->0]
r 15.059600307 _23_ RTR  --- 8 DSR 68 [0 ffffffff 9 800] ------- [0:255 19:255 32 0] 3 [1 2] [0 2 0 0->16] [0 0 0 0->0]
r 15.059600445 _21_ RTR  --- 8 DSR 68 [0 ffffffff 9 800] ------- [0:255 19:255 32 0] 3 [1 2] [0 2 0 0->16] [0 0 0 0->0]
r 15.059600445 _25_ RTR  --- 8 DSR 68 [0 ffffffff 9 800] ------- [0:255 19:255 32 0] 3 [1 2] [0 2 0 0->16] [0 0 0 0->0]
r 15.059600640 _3_ RTR  --- 8 DSR 68 [0 ffffffff 9 800] ------- [0:255 19:255 32 0] 3 [1 2] [0 2 0 0->16] [0 0 0 0->0]
r 15.059600640 _15_ RTR  --- 8 DSR 68 [0 ffffffff 9 800] ------- [0:255 19:255 32 0] 3 [1 2] [0 2 0 0->16] [0 0 0 0->0]
r 15.059600640 _10_ RTR  --- 8 DSR 68 [0 ffffffff 9 800] ------- [0:255 19:255 32 0] 3 [1 2] [0 2 0 0->16] [0 0 0 0->0]
r 15.059600719 _19_ RTR  --- 8 DSR 68 [0 ffffffff 9 800] ------- [0:255 19:255 32 0] 3 [1 2] [0 2 0 0->16] [0 0 0 0->0]
r 15.059600719 _27_ RTR  --- 8 DSR 68 [0 ffffffff 9 800] ------- [0:255 19:255 32 0] 3 [1 2] [0 2 0 0->16] [0 0 0 0->0]
r 15.059600719 _7_ RTR  --- 8 DSR 68 [0 ffffffff 9 800] ------- [0:255 19:255 32 0] 3 [1 2] [0 2 0 0->16] [0 0 0 0->0]
r 15.059600719 _13_ RTR  --- 8 DSR 68 [0 ffffffff 9 800] ------- [0:255 19:255 32 0] 3 [1 2] [0 2 0 0->16] [0 0 0 0->0]
s 15.059663186 _19_ RTR  --- 10 DSR 60 [0 0 0 0] ------- [19:255 0:255 254 9] 4 [0 2] [1 2 4 0->19] [0 0 0 0->0]
f 15.060323931 _26_ RTR  --- 8 DSR 68 [0 ffffffff 4 800] ------- [0:255 19:255 32 0] 3 [1 2] [0 2 0 0->16] [0 0 0 0->0]
f 15.060568653 _2_ RTR  --- 8 DSR 68 [0 ffffffff 4 800] ------- [0:255 19:255 32 0] 3 [1 2] [0 2 0 0->16] [0 0 0 0->0]
r 15.060650640 _3_ RTR  --- 8 DSR 48 [0 ffffffff 6 800] ------- [0:255 19:255 32 0] 2 [1 2] [0 2 0 0->16] [0 0 0 0->0]
r 15.060650640 _9_ RTR  --- 8 DSR 48 [0 ffffffff 6 800] ------- [0:255 19:255 32 0] 2 [1 2] [0 2 0 0->16] [0 0 0 0->0]
r 15.060650640 _25_ RTR  --- 8 DSR 48 [0 ffffffff 6 800] ------- [0:255 19:255 32 0] 2 [1 2] [0 2 0 0->16] [0 0 0 0->0]
r 15.060650778 _23_ RTR  --- 8 DSR 48 [0 ffffffff 6 800] ------- [0:255 19:255 32 0] 2 [1 2] [0 2 0 0->16] [0 0 0 0->0]
r 15.060650778 _27_ RTR  --- 8 DSR 48 [0 ffffffff 6 800] ------- [0:255 19:255 32 0] 2 [1 2] [0 2 0 0->16] [0 0 0 0->0]
r 15.060650974 _0_ RTR  --- 8 DSR 48 [0 ffffffff 6 800] ------- [0:255 19:255 32 0] 2 [1 2] [0 2 0 0->16] [0 0 0 0->0]
r 15.060650974 _12_ RTR  --- 8 DSR 48 [0 ffffffff 6 800] ------- [0:255 19:255 32 0] 2 [1 2] [0 2 0 0->16] [0 0 0 0->0]
r 15.060650974 _7_ RTR  --- 8 DSR 48 [0 ffffffff 6 800] ------- [0:255 19:255 32 0] 2 [1 2] [0 2 0 0->16] [0 0 0 0->0]
r 15.060651052 _21_ RTR  --- 8 DSR 48 [0 ffffffff 6 800] ------- [0:255 19:255 32 0] 2 [1 2] [0 2 0 0->16] [0 0 0 0->0]
r 15.060651052 _4_ RTR  --- 8 DSR 48 [0 ffffffff 6 800] ------- [0:255 19:255 32 0] 2 [1 2] [0 2 0 0->16] [0 0 0 0->0]
r 15.060651052 _10_ RTR  --- 8 DSR 48 [0 ffffffff 6 800] ------- [0:255 19:255 32 0] 2 [1 2] [0 2 0 0->16] [0 0 0 0->0]
s 15.060830067 _1_ RTR  --- 9 DSR 32 [0 0 0 0] ------- [1:255 21:255 32 0] 1 [1 2] [0 2 0 0->16] [0 0 0 0->0]
f 15.061457910 _24_ RTR  --- 8 DSR 68 [0 ffffffff 4 800] ------- [0:255 19:255 32 0] 3 [1 2] [0 2 0 0->16] [0 0 0 0->0]
r 15.061761307 _4_ RTR  --- 8 DSR 68 [0 ffffffff 7 800] ------- [0:255 19:255 32 0] 3 [1 2] [0 2 0 0->16] [0 0 0 0->0]
r 15.061761307 _25_ RTR  --- 8 DSR 68 [0 ffffffff 7 800] ------- [0:255 19:255 32 0] 3 [1 2] [0 2 0 0->16] [0 0 0 0->0]
r 15.061761307 _10_ RTR  --- 8 DSR 68 [0 ffffffff 7 800] ------- [0:255 19:255 32 0] 3 [1 2] [0 2 0 0->16] [0 0 0 0->0]
r 15.061761307 _24_ RTR  --- 8 DSR 68 [0 ffffffff 7 800] ------- [0:255 19:255 32 0] 3 [1 2] [0 2 0 0->16] [0 0 0 0->0]
r 15.061761445 _27_ RTR  --- 8 DSR 68 [0 ffffffff 7 800] ------- [0:255 19:255 32 0] 3 [1 2] [0 2 0 0->16] [0 0 0 0->0]
r 15.061761445 _23_ RTR  --- 8 DSR 68 [0 ffffffff 7 800] ------- [0:255 19:255 32 0] 3 [1 2] [0 2 0 0->16] [0 0 0 0->0]
r 15.061761445 _22_ RTR  --- 8 DSR 68 [0 ffffffff 7 800] ------- [0:255 19:255 32 0] 3 [1 2] [0 2 0 0->16] [0 0 0 0->0]
r 15.061761445 _26_ RTR  --- 8 DSR 68 [0 ffffffff 7 800] ------- [0:255 19:255 32 0] 3 [1 2] [0 2 0 0->16] [0 0 0 0->0]
r 15.061761640 _1_ RTR  --- 8 DSR 68 [0 ffffffff 7 800] ------- [0:255 19:255 32 0] 3 [1 2] [0 2 0 0->16] [0 0 0 0->0]
r 15.061761640 _6_ RTR  --- 8 DSR 68 [0 ffffffff 7 800] ------- [0:255 19:255 32 0] 3 [1 2] [0 2 0 0->16] [0 0 0 0->0]
r 15.061761640 _13_ RTR  --- 8 DSR 68 [0 ffffffff 7 800] ------- [0:255 19:255 32 0] 3 [1 2] [0 2 0 0->16] [0 0 0 0->0]
r 15.061761640 _8_ RTR  --- 8 DSR 68 [0 ffffffff 7 800] ------- [0:255 19:255 32 0] 3 [1 2] [0 2 0 0->16] [0 0 0 0->0]
r 15.061761719 _21_ RTR  --- 8 DSR 68 [0 ffffffff 7 800] ------- [0:255 19:255 32 0] 3 [1 2] [0 2 0 0->16] [0 0 0 0->0]
r 15.061761719 _9_ RTR  --- 8 DSR 68 [0 ffffffff 7 800] ------- [0:255 19:255 32 0] 3 [1 2] [0 2 0 0->16] [0 0 0 0->0]
r 15.061761719 _3_ RTR  --- 8 DSR 68 [0 ffffffff 7 800] ------- [0:255 19:255 32 0] 3 [1 2] [0 2 0 0->16] [0 0 0 0->0]
r 15.061761719 _20_ RTR  --- 8 DSR 68 [0 ffffffff 7 800] ------- [0:255 19:255 32 0] 3 [1 2] [0 2 0 0->16] [0 0 0 0->0]
r 15.061761719 _28_ RTR  --- 8 DSR 68 [0 ffffffff 7 800] ------- [0:255 19:255 32 0] 3 [1 2] [0 2 0 0->16] [0 0 0 0->0]
r 15.061761719 _5_ RTR  --- 8 DSR 68 [0 ffffffff 7 800] ------- [0:255 19:255 32 0] 3 [1 2] [0 2 0 0->16] [0 0 0 0->0]
r 15.061761719 _11_ RTR  --- 8 DSR 68 [0 ffffffff 7 800] ------- [0:255 19:255 32 0] 3 [1 2] [0 2 0 0->16] [0 0 0 0->0]
f 15.062229245 _28_ RTR  --- 8 DSR 68 [0 ffffffff 4 800] ------- [0:255 19:255 32 0] 3 [1 2] [0 2 0 0->16] [0 0 0 0->0]
f 15.062436111 _10_ RTR  --- 8 DSR 68 [0 ffffffff 4 800] ------- [0:255 19:255 32 0] 3 [1 2] [0 2 0 0->16] [0 0 0 0->0]
r 15.062563974 _4_ RTR  --- 9 DSR 32 [0 ffffffff 1 800] ------- [1:255 21:255 32 0] 1 [1 2] [0 2 0 0->16] [0 0 0 0->0]
r 15.062563974 _28_ RTR  --- 9 DSR 32 [0 ffffffff 1 800] ------- [1:255 21:255 32 0] 1 [1 2] [0 2 0 0->16] [0 0 0 0->0]
r 15.062564112 _27_ RTR  --- 9 DSR 32 [0 ffffffff 1 800] ------- [1:255 21:255 32 0] 1 [1 2] [0 2 0 0->16] [0 0 0 0->0]
r 15.062564112 _26_ RTR  --- 9 DSR 32 [0 ffffffff 1 800] ------- [1:255 21:255 32 0] 1 [1 2] [0 2 0 0->16] [0 0 0 0->0]
r 15.062564307 _0_ RTR  --- 9 DSR 32 [0 ffffffff 1 800] ------- [1:255 21:255 32 0] 1 [1 2] [0 2 0 0->16] [0 0 0 0->0]
r 15.062564307 _7_ RTR  --- 9 DSR 32 [0 ffffffff 1 800] ------- [1:255 21:255 32 0] 1 [1 2] [0 2 0 0->16] [0 0 0 0->0]
r 15.062564307 _2_ RTR  --- 9 DSR 32 [0 ffffffff 1 800] ------- [1:255 21:255 32 0] 1 [1 2] [0 2 0 0->16] [0 0 0 0->0]
r 15.062564386 _25_ RTR  --- 9 DSR 32 [0 ffffffff 1 800] ------- [1:255 21:255 32 0] 1 [1 2] [0 2 0 0->16] [0 0 0 0->0]
r 15.062564386 _3_ RTR  --- 9 DSR 32 [0 ffffffff 1 800] ------- [1:255 21:255 32 0] 1 [1 2] [0 2 0 0->16] [0 0 0 0->0]
r 15.062564386 _24_ RTR  --- 9 DSR 32 [0 ffffffff 1 800] ------- [1:255 21:255 32 0] 1 [1 2] [0 2 0 0->16] [0 0 0 0->0]
r 15.062564386 _5_ RTR  --- 9 DSR 32 [0 ffffffff 1 800] ------- [1:255 21:255 32 0] 1 [1 2] [0 2 0 0->16] [0 0 0 0->0]
f 15.062638570 _13_ RTR  --- 8 DSR 68 [0 ffffffff 19 800] ------- [0:255 19:255 32 0] 3 [1 2] [0 2 0 0->16] [0 0 0 0->0]
f 15.062878374 _25_ RTR  --- 9 DSR 48 [0 ffffffff 1 800] ------- [1:255 21:255 32 0] 2 [1 2] [0 2 0 0->16] [0 0 0 0->0]
f 15.063007780 _3_ RTR  --- 9 DSR 48 [0 ffffffff 1 800] ------- [1:255 21:255 32 0] 2 [1 2] [0 2 0 0->16] [0 0 0 0->0]
f 15.063186802 _5_ RTR  --- 8 DSR 68 [0 ffffffff 4 800] ------- [0:255 19:255 32 0] 3 [1 2] [0 2 0 0->16] [0 0 0 0->0]
f 15.063621464 _4_ RTR  --- 9 DSR 48 [0 ffffffff 1 800] ------- [1:255 21:255 32 0] 2 [1 2] [0 2 0 0->16] [0 0 0 0->0]
r 15.063634719 _22_ RTR  --- 8 DSR 68 [0 ffffffff 18 800] ------- [0:255 19:255 32 0] 3 [1 2] [0 2 0 0->16] [0 0 0 0->0]
r 15.063634719 _7_ RTR  --- 8 DSR 68 [0 ffffffff 18 800] ------- [0:255 19:255 32 0] 3 [1 2] [0 2 0 0->16] [0 0 0 0->0]
r 15.063634719 _26_ RTR  --- 8 DSR 68 [0 ffffffff 18 800] ------- [0:255 19:255 32 0] 3 [1 2] [0 2 0 0->16] [0 0 0 0->0]
r 15.063634719 _8_ RTR  --- 8 DSR 68 [0 ffffffff 18 800] ------- [0:255 19:255 32 0] 3 [1 2] [0 2 0 0->16] [0 0 0 0->0]
r 15.063634857 _10_ RTR  --- 8 DSR 68 [0 ffffffff 18 800] ------- [0:255 19:255 32 0] 3 [1 2] [0 2 0 0->16] [0 0 0 0->0]
r 15.063634857 _4_ RTR  --- 8 DSR 68 [0 ffffffff 18 800] ------- [0:255 19:255 32 0] 3 [1 2] [0 2 0 0->16] [0 0 0 0->0]
r 15.063634857 _5_ RTR  --- 8 DSR 68 [0 ffffffff 18 800] ------- [0:255 19:255 32 0] 3 [1 2] [0 2 0 0->16] [0 0 0 0->0]
r 15.063634857 _11_ RTR  --- 8 DSR 68 [0 ffffffff 18 800] ------- [0:255 19:255 32 0] 3 [1 2] [0 2 0 0->16] [0 0 0 0->0]
r 15.063635052 _20_ RTR  --- 8 DSR 68 [0 ffffffff 18 800] ------- [0:255 19:255 32 0] 3 [1 2] [0 2 0 0->16] [0 0 0 0->0]
r 15.063635052 _25_ RTR  --- 8 DSR 68 [0 ffffffff 18 800] ------- [0:255 19:255 32 0] 3 [1 2] [0 2 0 0->16] [0 0 0 0->0]
r 15.063635052 _28_ RTR  --- 8 DSR 68 [0 ffffffff 18 800] ------- [0:255 19:255 32 0] 3 [1 2] [0 2 0 0->16] [0 0 0 0->0]
r 15.063635131 _13_ RTR  --- 8 DSR 68 [0 ffffffff 18 800] ------- [0:255 19:255 32 0] 3 [1 2] [0 2 0 0->16] [0 0 0 0->0]
r 15.063635131 _1_ RTR  --- 8 DSR 68 [0 ffffffff 18 800] ------- [0:255 19:255 32 0] 3 [1 2] [0 2 0 0->16] [0 0 0 0->0]
r 15.063635131 _27_ RTR  --- 8 DSR 68 [0 ffffffff 18 800] ------- [0:255 19:255 32 0] 3 [1 2] [0 2 0 0->16] [0 0 0 0->0]
r 15.063635131 _23_ RTR  --- 8 DSR 68 [0 ffffffff 18 800] ------- [0:255 19:255 32 0] 3 [1 2] [0 2 0 0->16] [0 0 0 0->0]
r 15.063635131 _2_ RTR  --- 8 DSR 68 [0 ffffffff 18 800] ------- [0:255 19:255 32 0] 3 [1 2] [0 2 0 0->16] [0 0 0 0->0]
r 15.063635131 _14_ RTR  --- 8 DSR 68 [0 ffffffff 18 800] ------- [0:255 19:255 32 0] 3 [1 2] [0 2 0 0->16] [0 0 0 0->0]
f 15.063669982 _2_ RTR  --- 9 DSR 48 [0 ffffffff 1 800] ------- [1:255 21:255 32 0] 2 [1 2] [0 2 0 0->16] [0 0 0 0->0]
f 15.064217770 _20_ RTR  --- 8 DSR 92 [0 ffffffff 7 800] ------- [0:255 19:255 32 0] 4 [1 2] [0 2 0 0->16] [0 0 0 0->0]
r 15.064525386 _23_ RTR  --- 9 DSR 48 [0 ffffffff 19 800] ------- [1:255 21:255 32 0] 2 [1 2] [0 2 0 0->16] [0 0 0 0->0]
r 15.064525386 _6_ RTR  --- 9 DSR 48 [0 ffffffff 19 800] ------- [1:255 21:255 32 0] 2 [1 2] [0 2 0 0->16] [0 0 0 0->0]
r 15.064525386 _27_ RTR  --- 9 DSR 48 [0 ffffffff 19 800] ------- [1:255 21:255 32 0] 2 [1 2] [0 2 0 0->16] [0 0 0 0->0]
r 15.064525386 _7_ RTR  --- 9 DSR 48 [0 ffffffff 19 800] ------- [1:255 21:255 32 0] 2 [1 2] [0 2 0 0->16] [0 0 0 0->0]
r 15.064525524 _9_ RTR  --- 9 DSR 48 [0 ffffffff 19 800] ------- [1:255 21:255 32 0] 2 [1 2] [0 2 0 0->16] [0 0 0 0->0]
r 15.064525524 _3_ RTR  --- 9 DSR 48 [0 ffffffff 19 800] ------- [1:255 21:255 32 0] 2 [1 2] [0 2 0 0->16] [0 0 0 0->0]
r 15.064525524 _4_ RTR  --- 9 DSR 48 [0 ffffffff 19 800] ------- [1:255 21:255 32 0] 2 [1 2] [0 2 0 0->16] [0 0 0 0->0]
r 15.064525524 _10_ RTR  --- 9 DSR 48 [0 ffffffff 19 800] ------- [1:255 21:255 32 0] 2 [1 2] [0 2 0 0->16] [0 0 0 0->0]
r 15.064525719 _21_ RTR  --- 9 DSR 48 [0 ffffffff 19 800] ------- [1:255 21:255 32 0] 2 [1 2] [0 2 0 0->16] [0 0 0 0->0]
r 15.064525719 _24_ RTR  --- 9 DSR 48 [0 ffffffff 19 800] ------- [1:255 21:255 32 0] 2 [1 2] [0 2 0 0->16] [0 0 0 0->0]
r 15.064525798 _12_ RTR  --- 9 DSR 48 [0 ffffffff 19 800] ------- [1:255 21:255 32 0] 2 [1 2] [0 2 0 0->16] [0 0 0 0->0]
r 15.064525798 _0_ RTR  --- 9 DSR 48 [0 ffffffff 19 800] ------- [1:255 21:255 32 0] 2 [1 2] [0 2 0 0->16] [0 0 0 0->0]
r 15.064525798 _1_ RTR  --- 9 DSR 48 [0 ffffffff 19 800] ------- [1:255 21:255 32 0] 2 [1 2] [0 2 0 0->16] [0 0 0 0->0]
r 15.064525798 _13_ RTR  --- 9 DSR 48 [0 ffffffff 19 800] ------- [1:255 21:255 32 0] 2 [1 2] [0 2 0 0->16] [0 0 0 0->0]
r 15.064525798 _22_ RTR  --- 9 DSR 48 [0 ffffffff 19 800] ------- [1:255 21:255 32 0] 2 [1 2] [0 2 0 0->16] [0 0 0 0->0]
r 15.064525798 _26_ RTR  --- 9 DSR 48 [0 ffffffff 19 800] ------- [1:255 21:255 32 0] 2 [1 2] [0 2 0 0->16] [0 0 0 0->0]
f 15.064884122 _13_ RTR  --- 9 DSR 68 [0 ffffffff 19 800] ------- [1:255 21:255 32 0] 3 [1 2] [0 2 0 0->16] [0 0 0 0->0]
f 15.065057571 _26_ RTR  --- 9 DSR 48 [0 ffffffff 1 800] ------- [1:255 21:255 32 0] 2 [1 2] [0 2 0 0->16] [0 0 0 0->0]
r 15.065555719 _21_ RTR  --- 8 DSR 68 [0 ffffffff 17 800] ------- [0:255 19:255 32 0] 3 [1 2] [0 2 0 0->16] [0 0 0 0->0]
r 15.065555719 _9_ RTR  --- 8 DSR 68 [0 ffffffff 17 800] ------- [0:255 19:255 32 0] 3 [1 2] [0 2 0 0->16] [0 0 0 0->0]
r 15.065555719 _25_ RTR  --- 8 DSR 68 [0 ffffffff 17 800] ------- [0:255 19:255 32 0] 3 [1 2] [0 2 0 0->16] [0 0 0 0->0]
r 15.065555719 _10_ RTR  --- 8 DSR 68 [0 ffffffff 17 800] ------- [0:255 19:255 32 0] 3 [1 2] [0 2 0 0->16] [0 0 0 0->0]
r 15.065555857 _12_ RTR  --- 8 DSR 68 [0 ffffffff 17 800] ------- [0:255 19:255 32 0] 3 [1 2] [0 2 0 0->16] [0 0 0 0->0]
r 15.065555857 _6_ RTR  --- 8 DSR 68 [0 ffffffff 17 800] ------- [0:255 19:255 32 0] 3 [1 2] [0 2 0 0->16] [0 0 0 0->0]
r 15.065555857 _7_ RTR  --- 8 DSR 68 [0 ffffffff 17 800] ------- [0:255 19:255 32 0] 3 [1 2] [0 2 0 0->16] [0 0 0 0->0]
r 15.065555857 _13_ RTR  --- 8 DSR 68 [0 ffffffff 17 800] ------- [0:255 19:255 32 0] 3 [1 2] [0 2 0 0->16] [0 0 0 0->0]
r 15.065556052 _19_ RTR  --- 8 DSR 68 [0 ffffffff 17 800] ------- [0:255 19:255 32 0] 3 [1 2] [0 2 0 0->16] [0 0 0 0->0]
r 15.065556052 _27_ RTR  --- 8 DSR 68 [0 ffffffff 17 800] ------- [0:255 19:255 32 0] 3 [1 2] [0 2 0 0->16] [0 0 0 0->0]
r 15.065556052 _22_ RTR  --- 8 DSR 68 [0 ffffffff 17 800] ------- [0:255 19:255 32 0] 3 [1 2] [0 2 0 0->16] [0 0 0 0->0]
r 15.065556131 _15_ RTR  --- 8 DSR 68 [0 ffffffff 17 800] ------- [0:255 19:255 32 0] 3 [1 2] [0 2 0 0->16] [0 0 0 0->0]
r 15.065556131 _3_ RTR  --- 8 DSR 68 [0 ffffffff 17 800] ------- [0:255 19:255 32 0] 3 [1 2] [0 2 0 0->16] [0 0 0 0->0]
r 15.065556131 _4_ RTR  --- 8 DSR 68 [0 ffffffff 17 800] ------- [0:255 19:255 32 0] 3 [1 2] [0 2 0 0->16] [0 0 0 0->0]
r 15.065556131 _16_ RTR  --- 8 DSR 68 [0 ffffffff 17 800] ------- [0:255 19:255 32 0] 3 [1 2] [0 2 0 0->16] [0 0 0 0->0]
r 15.065556131 _20_ RTR  --- 8 DSR 68 [0 ffffffff 17 800] ------- [0:255 19:255 32 0] 3 [1 2] [0 2 0 0->16] [0 0 0 0->0]
r 15.065556131 _24_ RTR  --- 8 DSR 68 [0 ffffffff 17 800] ------- [0:255 19:255 32 0] 3 [1 2] [0 2 0 0->16] [0 0 0 0->0]
f 15.065812945 _22_ RTR  --- 9 DSR 68 [0 ffffffff 19 800] ------- [1:255 21:255 32 0] 3 [1 2] [0 2 0 0->16] [0 0 0 0->0]