n -t * -s 0  -x 100 -y 0 -Z 0 -z 30  -v circle -c black
n -t * -s 1  -x 300 -y 0 -Z 0 -z 30  -v circle -c black
n -t * -s 2  -x 500 -y 0 -Z 0 -z 30  -v circle -c black
n -t * -s 3  -x 100 -y 100 -Z 0 -z 30  -v circle -c black
n -t * -s 4  -x 300 -y 100 -Z 0 -z 30  -v circle -c black
n -t * -s 5  -x 500 -y 100 -Z 0 -z 30  -v circle -c black
n -t * -s 6  -x 100 -y 200 -Z 0 -z 30  -v circle -c black
n -t * -s 7  -x 300 -y 200 -Z 0 -z 30  -v circle -c black
n -t * -s 8  -x 500 -y 200 -Z 0 -z 30  -v circle -c black
n -t * -s 9  -x 100 -y 300 -Z 0 -z 30  -v circle -c black
n -t * -s 10  -x 300 -y 300 -Z 0 -z 30  -v circle -c black
n -t * -s 11  -x 500 -y 300 -Z 0 -z 30  -v circle -c black
n -t * -s 12  -x 100 -y 400 -Z 0 -z 30  -v circle -c black
n -t * -s 13  -x 300 -y 400 -Z 0 -z 30  -v circle -c black
n -t * -s 14  -x 500 -y 400 -Z 0 -z 30  -v circle -c black
n -t * -s 15  -x 100 -y 500 -Z 0 -z 30  -v circle -c black
n -t * -s 16  -x 300 -y 500 -Z 0 -z 30  -v circle -c black
n -t * -s 17  -x 500 -y 500 -Z 0 -z 30  -v circle -c black
n -t * -s 18  -x 400 -y 500 -Z 0 -z 30  -v circle -c black
n -t * -s 19  -x 200 -y 500 -Z 0 -z 30  -v circle -c black
n -t * -s 20  -x 400 -y 400 -Z 0 -z 30  -v circle -c black
n -t * -s 21  -x 200 -y 400 -Z 0 -z 30  -v circle -c black
n -t * -s 22  -x 400 -y 300 -Z 0 -z 30  -v circle -c black
n -t * -s 23  -x 200 -y 300 -Z 0 -z 30  -v circle -c black
n -t * -s 24  -x 400 -y 200 -Z 0 -z 30  -v circle -c black
n -t * -s 25  -x 200 -y 200 -Z 0 -z 30  -v circle -c black
n -t * -s 26  -x 400 -y 100 -Z 0 -z 30  -v circle -c black
n -t * -s 27  -x 200 -y 100 -Z 0 -z 30  -v circle -c black
n -t * -s 28  -x 400 -y 0 -Z 0 -z 30  -v circle -c black
V -t * -v 1.0a5 -a 0
W -t * -x 500 -y 500
A -t * -n 1 -p 0 -o 0xffffffff -c 31 -a 1
A -t * -h 1 -m 2147483647 -s 0
+ -t 15.000000000 -s 0 -d -1 -p cbr -e 512 -c 2 -a 0 -i 0 -k AGT 
- -t 15.000000000 -s 0 -d -1 -p cbr -e 512 -c 2 -a 0 -i 0 -k AGT
h -t 15.000000000 -s 0 -d -1 -p cbr -e 512 -c 2 -a 0 -i 0 -k AGT
+ -t 15.000000000 -s 1 -d -1 -p cbr -e 512 -c 2 -a 0 -i 2 -k AGT 
- -t 15.000000000 -s 1 -d -1 -p cbr -e 512 -c 2 -a 0 -i 2 -k AGT
h -t 15.000000000 -s 1 -d -1 -p cbr -e 512 -c 2 -a 0 -i 2 -k AGT
+ -t 15.000000000 -s 24 -d -1 -p cbr -e 512 -c 2 -a 0 -i 4 -k AGT 
- -t 15.000000000 -s 24 -d -1 -p cbr -e 512 -c 2 -a 0 -i 4 -k AGT
h -t 15.000000000 -s 24 -d -1 -p cbr -e 512 -c 2 -a 0 -i 4 -k AGT
+ -t 15.001070110 -s 1 -d -1 -p DSR -e 32 -c 2 -a 0 -i 3 -k RTR 
- -t 15.001070110 -s 1 -d -1 -p DSR -e 32 -c 2 -a 0 -i 3 -k RTR
h -t 15.001070110 -s 1 -d -1 -p DSR -e 32 -c 2 -a 0 -i 3 -k RTR
+ -t 15.002342658 -s 0 -d -1 -p DSR -e 32 -c 2 -a 0 -i 1 -k RTR 
- -t 15.002342658 -s 0 -d -1 -p DSR -e 32 -c 2 -a 0 -i 1 -k RTR
h -t 15.002342658 -s 0 -d -1 -p DSR -e 32 -c 2 -a 0 -i 1 -k RTR
+ -t 15.002883712 -s 24 -d -1 -p DSR -e 32 -c 2 -a 0 -i 5 -k RTR 
- -t 15.002883712 -s 24 -d -1 -p DSR -e 32 -c 2 -a 0 -i 5 -k RTR
h -t 15.002883712 -s 24 -d -1 -p DSR -e 32 -c 2 -a 0 -i 5 -k RTR
+ -t 15.008599876 -s 25 -d 24 -p DSR -e 44 -c 2 -a 0 -i 6 -k RTR 
- -t 15.008599876 -s 25 -d 24 -p DSR -e 44 -c 2 -a 0 -i 6 -k RTR
h -t 15.008599876 -s 25 -d 24 -p DSR -e 44 -c 2 -a 0 -i 6 -k RTR
+ -t 15.010485876 -s 24 -d 25 -p cbr -e 548 -c 2 -a 0 -i 4 -k RTR 
- -t 15.010485876 -s 24 -d 25 -p cbr -e 548 -c 2 -a 0 -i 4 -k RTR
h -t 15.010485876 -s 24 -d 25 -p cbr -e 548 -c 2 -a 0 -i 4 -k RTR
r -t 15.016487876 -s 25 -d 25 -p cbr -e 512 -c 2 -a 0 -i 4 -k AGT
+ -t 15.045900540 -s 0 -d -1 -p DSR -e 32 -c 2 -a 0 -i 8 -k RTR 
- -t 15.045900540 -s 0 -d -1 -p DSR -e 32 -c 2 -a 0 -i 8 -k RTR
h -t 15.045900540 -s 0 -d -1 -p DSR -e 32 -c 2 -a 0 -i 8 -k RTR
+ -t 15.053367893 -s 4 -d -1 -p DSR -e 48 -c 2 -a 0 -i 8 -k RTR 
- -t 15.053367893 -s 4 -d -1 -p DSR -e 48 -c 2 -a 0 -i 8 -k RTR
h -t 15.053367893 -s 4 -d -1 -p DSR -e 48 -c 2 -a 0 -i 8 -k RTR
+ -t 15.053417123 -s 27 -d -1 -p DSR -e 48 -c 2 -a 0 -i 8 -k RTR 
- -t 15.053417123 -s 27 -d -1 -p DSR -e 48 -c 2 -a 0 -i 8 -k RTR
h -t 15.053417123 -s 27 -d -1 -p DSR -e 48 -c 2 -a 0 -i 8 -k RTR
+ -t 15.053521870 -s 1 -d -1 -p DSR -e 48 -c 2 -a 0 -i 8 -k RTR 
- -t 15.053521870 -s 1 -d -1 -p DSR -e 48 -c 2 -a 0 -i 8 -k RTR
h -t 15.053521870 -s 1 -d -1 -p DSR -e 48 -c 2 -a 0 -i 8 -k RTR
+ -t 15.054009613 -s 3 -d -1 -p DSR -e 48 -c 2 -a 0 -i 8 -k RTR 
- -t 15.054009613 -s 3 -d -1 -p DSR -e 48 -c 2 -a 0 -i 8 -k RTR
h -t 15.054009613 -s 3 -d -1 -p DSR -e 48 -c 2 -a 0 -i 8 -k RTR
+ -t 15.055320779 -s 25 -d -1 -p DSR -e 48 -c 2 -a 0 -i 8 -k RTR 
- -t 15.055320779 -s 25 -d -1 -p DSR -e 48 -c 2 -a 0 -i 8 -k RTR
h -t 15.055320779 -s 25 -d -1 -p DSR -e 48 -c 2 -a 0 -i 8 -k RTR
+ -t 15.056195222 -s 8 -d -1 -p DSR -e 68 -c 2 -a 0 -i 8 -k RTR 
- -t 15.056195222 -s 8 -d -1 -p DSR -e 68 -c 2 -a 0 -i 8 -k RTR
h -t 15.056195222 -s 8 -d -1 -p DSR -e 68 -c 2 -a 0 -i 8 -k RTR
+ -t 15.056535732 -s 6 -d -1 -p DSR -e 48 -c 2 -a 0 -i 8 -k RTR 
- -t 15.056535732 -s 6 -d -1 -p DSR -e 48 -c 2 -a 0 -i 8 -k RTR
h -t 15.056535732 -s 6 -d -1 -p DSR -e 48 -c 2 -a 0 -i 8 -k RTR
+ -t 15.057513879 -s 23 -d -1 -p DSR -e 68 -c 2 -a 0 -i 8 -k RTR 
- -t 15.057513879 -s 23 -d -1 -p DSR -e 68 -c 2 -a 0 -i 8 -k RTR
h -t 15.057513879 -s 23 -d -1 -p DSR -e 68 -c 2 -a 0 -i 8 -k RTR
+ -t 15.058049512 -s 7 -d -1 -p DSR -e 68 -c 2 -a 0 -i 8 -k RTR 
- -t 15.058049512 -s 7 -d -1 -p DSR -e 68 -c 2 -a 0 -i 8 -k RTR
h -t 15.058049512 -s 7 -d -1 -p DSR -e 68 -c 2 -a 0 -i 8 -k RTR
+ -t 15.058081020 -s 22 -d -1 -p DSR -e 68 -c 2 -a 0 -i 8 -k RTR 
- -t 15.058081020 -s 22 -d -1 -p DSR -e 68 -c 2 -a 0 -i 8 -k RTR
h -t 15.058081020 -s 22 -d -1 -p DSR -e 68 -c 2 -a 0 -i 8 -k RTR
+ -t 15.058286711 -s 9 -d -1 -p DSR -e 68 -c 2 -a 0 -i 8 -k RTR 
- -t 15.058286711 -s 9 -d -1 -p DSR -e 68 -c 2 -a 0 -i 8 -k RTR
h -t 15.058286711 -s 9 -d -1 -p DSR -e 68 -c 2 -a 0 -i 8 -k RTR
+ -t 15.059663186 -s 19 -d 9 -p DSR -e 60 -c 2 -a 0 -i 10 -k RTR 
- -t 15.059663186 -s 19 -d 9 -p DSR -e 60 -c 2 -a 0 -i 10 -k RTR
h -t 15.059663186 -s 19 -d 9 -p DSR -e 60 -c 2 -a 0 -i 10 -k RTR
+ -t 15.060323931 -s 26 -d -1 -p DSR -e 68 -c 2 -a 0 -i 8 -k RTR 
- -t 15.060323931 -s 26 -d -1 -p DSR -e 68 -c 2 -a 0 -i 8 -k RTR
h -t 15.060323931 -s 26 -d -1 -p DSR -e 68 -c 2 -a 0 -i 8 -k RTR
+ -t 15.060568653 -s 2 -d -1 -p DSR -e 68 -c 2 -a 0 -i 8 -k RTR 
- -t 15.060568653 -s 2 -d -1 -p DSR -e 68 -c 2 -a 0 -i 8 -k RTR
h -t 15.060568653 -s 2 -d -1 -p DSR -e 68 -c 2 -a 0 -i 8 -k RTR
+ -t 15.060830067 -s 1 -d -1 -p DSR -e 32 -c 2 -a 0 -i 9 -k RTR 
- -t 15.060830067 -s 1 -d -1 -p DSR -e 32 -c 2 -a 0 -i 9 -k RTR
h -t 15.060830067 -s 1 -d -1 -p DSR -e 32 -c 2 -a 0 -i 9 -k RTR
+ -t 15.061457910 -s 24 -d -1 -p DSR -e 68 -c 2 -a 0 -i 8 -k RTR 
- -t 15.061457910 -s 24 -d -1 -p DSR -e 68 -c 2 -a 0 -i 8 -k RTR
h -t 15.061457910 -s 24 -d -1 -p DSR -e 68 -c 2 -a 0 -i 8 -k RTR
+ -t 15.062229245 -s 28 -d -1 -p DSR -e 68 -c 2 -a 0 -i 8 -k RTR 
- -t 15.062229245 -s 28 -d -1 -p DSR -e 68 -c 2 -a 0 -i 8 -k RTR
h -t 15.062229245 -s 28 -d -1 -p DSR -e 68 -c 2 -a 0 -i 8 -k RTR
+ -t 15.062436111 -s 10 -d -1 -p DSR -e 68 -c 2 -a 0 -i 8 -k RTR 
- -t 15.062436111 -s 10 -d -1 -p DSR -e 68 -c 2 -a 0 -i 8 -k RTR
h -t 15.062436111 -s 10 -d -1 -p DSR -e 68 -c 2 -a 0 -i 8 -k RTR
+ -t 15.062638570 -s 13 -d -1 -p DSR -e 68 -c 2 -a 0 -i 8 -k RTR 
- -t 15.062638570 -s 13 -d -1 -p DSR -e 68 -c 2 -a 0 -i 8 -k RTR
h -t 15.062638570 -s 13 -d -1 -p DSR -e 68 -c 2 -a 0 -i 8 -k RTR
+ -t 15.062878374 -s 25 -d -1 -p DSR -e 48 -c 2 -a 0 -i 9 -k RTR 
- -t 15.062878374 -s 25 -d -1 -p DSR -e 48 -c 2 -a 0 -i 9 -k RTR
h -t 15.062878374 -s 25 -d -1 -p DSR -e 48 -c 2 -a 0 -i 9 -k RTR
+ -t 15.063007780 -s 3 -d -1 -p DSR -e 48 -c 2 -a 0 -i 9 -k RTR 
- -t 15.063007780 -s 3 -d -1 -p DSR -e 48 -c 2 -a 0 -i 9 -k RTR
h -t 15.063007780 -s 3 -d -1 -p DSR -e 48 -c 2 -a 0 -i 9 -k RTR
+ -t 15.063186802 -s 5 -d -1 -p DSR -e 68 -c 2 -a 0 -i 8 -k RTR 
- -t 15.063186802 -s 5 -d -1 -p DSR -e 68 -c 2 -a 0 -i 8 -k RTR
h -t 15.063186802 -s 5 -d -1 -p DSR -e 68 -c 2 -a 0 -i 8 -k RTR
+ -t 15.063621464 -s 4 -d -1 -p DSR -e 48 -c 2 -a 0 -i 9 -k RTR 
- -t 15.063621464 -s 4 -d -1 -p DSR -e 48 -c 2 -a 0 -i 9 -k RTR
h -t 15.063621464 -s 4 -d -1 -p DSR -e 48 -c 2 -a 0 -i 9 -k RTR
+ -t 15.063669982 -s 2 -d -1 -p DSR -e 48 -c 2 -a 0 -i 9 -k RTR 
- -t 15.063669982 -s 2 -d -1 -p DSR -e 48 -c 2 -a 0 -i 9 -k RTR
h -t 15.063669982 -s 2 -d -1 -p DSR -e 48 -c 2 -a 0 -i 9 -k RTR
+ -t 15.064217770 -s 20 -d -1 -p DSR -e 92 -c 2 -a 0 -i 8 -k RTR 
- -t 15.064217770 -s 20 -d -1 -p DSR -e 92 -c 2 -a 0 -i 8 -k RTR
h -t 15.064217770 -s 20 -d -1 -p DSR -e 92 -c 2 -a 0 -i 8 -k RTR
+ -t 15.064884122 -s 13 -d -1 -p DSR -e 68 -c 2 -a 0 -i 9 -k RTR 
- -t 15.064884122 -s 13 -d -1 -p DSR -e 68 -c 2 -a 0 -i 9 -k RTR
h -t 15.064884122 -s 13 -d -1 -p DSR -e 68 -c 2 -a 0 -i 9 -k RTR
+ -t 15.065057571 -s 26 -d -1 -p DSR -e 48 -c 2 -a 0 -i 9 -k RTR 
- -t 15.065057571 -s 26 -d -1 -p DSR -e 48 -c 2 -a 0 -i 9 -k RTR
h -t 15.065057571 -s 26 -d -1 -p DSR -e 48 -c 2 -a 0 -i 9 -k RTR
+ -t 15.065812945 -s 22 -d -1 -p DSR -e 68 -c 2 -a 0 -i 9 -k RTR 
- -t 15.065812945 -s 22 -d -1 -p DSR -e 68 -c 2 -a 0 -i 9 -k RTR
h -t 15.065812945 -s 22 -d -1 -p DSR -e 68 -c 2 -a 0 -i 9 -k RTR
+ -t 15.066469261 -s 11 -d -1 -p DSR -e 92 -c 2 -a 0 -i 8 -k RTR 
- -t 15.066469261 -s 11 -d -1 -p DSR -e 92 -c 2 -a 0 -i 8 -k RTR
h -t 15.066469261 -s 11 -d -1 -p DSR -e 92 -c 2 -a 0 -i 8 -k RTR
+ -t 15.066919606 -s 12 -d -1 -p DSR -e 68 -c 2 -a 0 -i 8 -k RTR 
- -t 15.066919606 -s 12 -d -1 -p DSR -e 68 -c 2 -a 0 -i 8 -k RTR
h -t 15.066919606 -s 12 -d -1 -p DSR -e 68 -c 2 -a 0 -i 8 -k RTR
+ -t 15.067292041 -s 21 -d -1 -p DSR -e 68 -c 2 -a 0 -i 8 -k RTR 
- -t 15.067292041 -s 21 -d -1 -p DSR -e 68 -c 2 -a 0 -i 8 -k RTR
h -t 15.067292041 -s 21 -d -1 -p DSR -e 68 -c 2 -a 0 -i 8 -k RTR
+ -t 15.067604371 -s 17 -d -1 -p DSR -e 92 -c 2 -a 0 -i 8 -k RTR 
- -t 15.067604371 -s 17 -d -1 -p DSR -e 92 -c 2 -a 0 -i 8 -k RTR
h -t 15.067604371 -s 17 -d -1 -p DSR -e 92 -c 2 -a 0 -i 8 -k RTR
+ -t 15.067735322 -s 15 -d -1 -p DSR -e 92 -c 2 -a 0 -i 8 -k RTR 
- -t 15.067735322 -s 15 -d -1 -p DSR -e 92 -c 2 -a 0 -i 8 -k RTR
h -t 15.067735322 -s 15 -d -1 -p DSR -e 92 -c 2 -a 0 -i 8 -k RTR
+ -t 15.067889421 -s 28 -d -1 -p DSR -e 48 -c 2 -a 0 -i 9 -k RTR 
- -t 15.067889421 -s 28 -d -1 -p DSR -e 48 -c 2 -a 0 -i 9 -k RTR
h -t 15.067889421 -s 28 -d -1 -p DSR -e 48 -c 2 -a 0 -i 9 -k RTR
+ -t 15.068266824 -s 7 -d -1 -p DSR -e 48 -c 2 -a 0 -i 9 -k RTR 
- -t 15.068266824 -s 7 -d -1 -p DSR -e 48 -c 2 -a 0 -i 9 -k RTR
h -t 15.068266824 -s 7 -d -1 -p DSR -e 48 -c 2 -a 0 -i 9 -k RTR
+ -t 15.068814348 -s 5 -d -1 -p DSR -e 48 -c 2 -a 0 -i 9 -k RTR 
- -t 15.068814348 -s 5 -d -1 -p DSR -e 48 -c 2 -a 0 -i 9 -k RTR
h -t 15.068814348 -s 5 -d -1 -p DSR -e 48 -c 2 -a 0 -i 9 -k RTR
+ -t 15.069231440 -s 10 -d -1 -p DSR -e 68 -c 2 -a 0 -i 9 -k RTR 
- -t 15.069231440 -s 10 -d -1 -p DSR -e 68 -c 2 -a 0 -i 9 -k RTR
h -t 15.069231440 -s 10 -d -1 -p DSR -e 68 -c 2 -a 0 -i 9 -k RTR
+ -t 15.069560045 -s 27 -d -1 -p DSR -e 48 -c 2 -a 0 -i 9 -k RTR 
- -t 15.069560045 -s 27 -d -1 -p DSR -e 48 -c 2 -a 0 -i 9 -k RTR
h -t 15.069560045 -s 27 -d -1 -p DSR -e 48 -c 2 -a 0 -i 9 -k RTR
+ -t 15.069641969 -s 19 -d 21 -p DSR -e 60 -c 2 -a 0 -i 14 -k RTR 
- -t 15.069641969 -s 19 -d 21 -p DSR -e 60 -c 2 -a 0 -i 14 -k RTR
h -t 15.069641969 -s 19 -d 21 -p DSR -e 60 -c 2 -a 0 -i 14 -k RTR
+ -t 15.070088826 -s 9 -d -1 -p DSR -e 68 -c 2 -a 0 -i 9 -k RTR 
- -t 15.070088826 -s 9 -d -1 -p DSR -e 68 -c 2 -a 0 -i 9 -k RTR
h -t 15.070088826 -s 9 -d -1 -p DSR -e 68 -c 2 -a 0 -i 9 -k RTR
+ -t 15.070798448 -s 21 -d 25 -p DSR -e 52 -c 2 -a 0 -i 11 -k RTR 
- -t 15.070798448 -s 21 -d 25 -p DSR -e 52 -c 2 -a 0 -i 11 -k RTR
h -t 15.070798448 -s 21 -d 25 -p DSR -e 52 -c 2 -a 0 -i 11 -k RTR
+ -t 15.071488221 -s 0 -d -1 -p DSR -e 48 -c 2 -a 0 -i 9 -k RTR 
- -t 15.071488221 -s 0 -d -1 -p DSR -e 48 -c 2 -a 0 -i 9 -k RTR
h -t 15.071488221 -s 0 -d -1 -p DSR -e 48 -c 2 -a 0 -i 9 -k RTR
+ -t 15.071602016 -s 23 -d -1 -p DSR -e 68 -c 2 -a 0 -i 9 -k RTR 
- -t 15.071602016 -s 23 -d -1 -p DSR -e 68 -c 2 -a 0 -i 9 -k RTR
h -t 15.071602016 -s 23 -d -1 -p DSR -e 68 -c 2 -a 0 -i 9 -k RTR
+ -t 15.072195812 -s 24 -d -1 -p DSR -e 48 -c 2 -a 0 -i 9 -k RTR 
- -t 15.072195812 -s 24 -d -1 -p DSR -e 48 -c 2 -a 0 -i 9 -k RTR
h -t 15.072195812 -s 24 -d -1 -p DSR -e 48 -c 2 -a 0 -i 9 -k RTR
+ -t 15.072545446 -s 12 -d -1 -p DSR -e 68 -c 2 -a 0 -i 9 -k RTR 
- -t 15.072545446 -s 12 -d -1 -p DSR -e 68 -c 2 -a 0 -i 9 -k RTR
h -t 15.072545446 -s 12 -d -1 -p DSR -e 68 -c 2 -a 0 -i 9 -k RTR
+ -t 15.072972277 -s 16 -d -1 -p DSR -e 92 -c 2 -a 0 -i 8 -k RTR 
- -t 15.072972277 -s 16 -d -1 -p DSR -e 92 -c 2 -a 0 -i 8 -k RTR
h -t 15.072972277 -s 16 -d -1 -p DSR -e 92 -c 2 -a 0 -i 8 -k RTR
+ -t 15.073077865 -s 6 -d -1 -p DSR -e 68 -c 2 -a 0 -i 9 -k RTR 
- -t 15.073077865 -s 6 -d -1 -p DSR -e 68 -c 2 -a 0 -i 9 -k RTR
h -t 15.073077865 -s 6 -d -1 -p DSR -e 68 -c 2 -a 0 -i 9 -k RTR
+ -t 15.073625141 -s 14 -d -1 -p DSR -e 92 -c 2 -a 0 -i 8 -k RTR 
- -t 15.073625141 -s 14 -d -1 -p DSR -e 92 -c 2 -a 0 -i 8 -k RTR
h -t 15.073625141 -s 14 -d -1 -p DSR -e 92 -c 2 -a 0 -i 8 -k RTR
+ -t 15.075294096 -s 19 -d 23 -p DSR -e 60 -c 2 -a 0 -i 12 -k RTR 
- -t 15.075294096 -s 19 -d 23 -p DSR -e 60 -c 2 -a 0 -i 12 -k RTR
h -t 15.075294096 -s 19 -d 23 -p DSR -e 60 -c 2 -a 0 -i 12 -k RTR
+ -t 15.075873632 -s 18 -d -1 -p DSR -e 92 -c 2 -a 0 -i 8 -k RTR 
- -t 15.075873632 -s 18 -d -1 -p DSR -e 92 -c 2 -a 0 -i 8 -k RTR
h -t 15.075873632 -s 18 -d -1 -p DSR -e 92 -c 2 -a 0 -i 8 -k RTR
+ -t 15.076304519 -s 19 -d 13 -p DSR -e 60 -c 2 -a 0 -i 13 -k RTR 
- -t 15.076304519 -s 19 -d 13 -p DSR -e 60 -c 2 -a 0 -i 13 -k RTR
h -t 15.076304519 -s 19 -d 13 -p DSR -e 60 -c 2 -a 0 -i 13 -k RTR
+ -t 15.077078057 -s 20 -d -1 -p DSR -e 68 -c 2 -a 0 -i 9 -k RTR 
- -t 15.077078057 -s 20 -d -1 -p DSR -e 68 -c 2 -a 0 -i 9 -k RTR
h -t 15.077078057 -s 20 -d -1 -p DSR -e 68 -c 2 -a 0 -i 9 -k RTR
+ -t 15.079067572 -s 21 -d 7 -p DSR -e 52 -c 2 -a 0 -i 16 -k RTR 
- -t 15.079067572 -s 21 -d 7 -p DSR -e 52 -c 2 -a 0 -i 16 -k RTR
h -t 15.079067572 -s 21 -d 7 -p DSR -e 52 -c 2 -a 0 -i 16 -k RTR
+ -t 15.079401014 -s 19 -d 18 -p DSR -e 68 -c 2 -a 0 -i 18 -k RTR 
- -t 15.079401014 -s 19 -d 18 -p DSR -e 68 -c 2 -a 0 -i 18 -k RTR
h -t 15.079401014 -s 19 -d 18 -p DSR -e 68 -c 2 -a 0 -i 18 -k RTR
+ -t 15.079632153 -s 8 -d -1 -p DSR -e 68 -c 2 -a 0 -i 9 -k RTR 
- -t 15.079632153 -s 8 -d -1 -p DSR -e 68 -c 2 -a 0 -i 9 -k RTR
h -t 15.079632153 -s 8 -d -1 -p DSR -e 68 -c 2 -a 0 -i 9 -k RTR
+ -t 15.080179190 -s 11 -d -1 -p DSR -e 68 -c 2 -a 0 -i 9 -k RTR 
- -t 15.080179190 -s 11 -d -1 -p DSR -e 68 -c 2 -a 0 -i 9 -k RTR
h -t 15.080179190 -s 11 -d -1 -p DSR -e 68 -c 2 -a 0 -i 9 -k RTR
+ -t 15.080305883 -s 14 -d -1 -p DSR -e 92 -c 2 -a 0 -i 9 -k RTR 
- -t 15.080305883 -s 14 -d -1 -p DSR -e 92 -c 2 -a 0 -i 9 -k RTR
h -t 15.080305883 -s 14 -d -1 -p DSR -e 92 -c 2 -a 0 -i 9 -k RTR
+ -t 15.081394617 -s 21 -d 22 -p DSR -e 60 -c 2 -a 0 -i 17 -k RTR 
- -t 15.081394617 -s 21 -d 22 -p DSR -e 60 -c 2 -a 0 -i 17 -k RTR
h -t 15.081394617 -s 21 -d 22 -p DSR -e 60 -c 2 -a 0 -i 17 -k RTR
+ -t 15.082775090 -s 0 -d -1 -p cbr -e 512 -c 2 -a 0 -i 20 -k AGT 
- -t 15.082775090 -s 0 -d -1 -p cbr -e 512 -c 2 -a 0 -i 20 -k AGT
h -t 15.082775090 -s 0 -d -1 -p cbr -e 512 -c 2 -a 0 -i 20 -k AGT
+ -t 15.084185517 -s 16 -d -1 -p DSR -e 92 -c 2 -a 0 -i 9 -k RTR 
- -t 15.084185517 -s 16 -d -1 -p DSR -e 92 -c 2 -a 0 -i 9 -k RTR
h -t 15.084185517 -s 16 -d -1 -p DSR -e 92 -c 2 -a 0 -i 9 -k RTR
+ -t 15.085406381 -s 9 -d 27 -p DSR -e 60 -c 2 -a 0 -i 10 -k RTR 
- -t 15.085406381 -s 9 -d 27 -p DSR -e 60 -c 2 -a 0 -i 10 -k RTR
h -t 15.085406381 -s 9 -d 27 -p DSR -e 60 -c 2 -a 0 -i 10 -k RTR
+ -t 15.086751598 -s 19 -d 13 -p DSR -e 64 -c 2 -a 0 -i 24 -k RTR 
- -t 15.086751598 -s 19 -d 13 -p DSR -e 64 -c 2 -a 0 -i 24 -k RTR
h -t 15.086751598 -s 19 -d 13 -p DSR -e 64 -c 2 -a 0 -i 24 -k RTR
+ -t 15.086863987 -s 18 -d -1 -p DSR -e 92 -c 2 -a 0 -i 9 -k RTR 
- -t 15.086863987 -s 18 -d -1 -p DSR -e 92 -c 2 -a 0 -i 9 -k RTR
h -t 15.086863987 -s 18 -d -1 -p DSR -e 92 -c 2 -a 0 -i 9 -k RTR
+ -t 15.087853523 -s 17 -d -1 -p DSR -e 92 -c 2 -a 0 -i 9 -k RTR 
- -t 15.087853523 -s 17 -d -1 -p DSR -e 92 -c 2 -a 0 -i 9 -k RTR
h -t 15.087853523 -s 17 -d -1 -p DSR -e 92 -c 2 -a 0 -i 9 -k RTR
+ -t 15.089194811 -s 21 -d 9 -p DSR -e 60 -c 2 -a 0 -i 25 -k RTR 
- -t 15.089194811 -s 21 -d 9 -p DSR -e 60 -c 2 -a 0 -i 25 -k RTR
h -t 15.089194811 -s 21 -d 9 -p DSR -e 60 -c 2 -a 0 -i 25 -k RTR
+ -t 15.089672888 -s 15 -d -1 -p DSR -e 92 -c 2 -a 0 -i 9 -k RTR 
- -t 15.089672888 -s 15 -d -1 -p DSR -e 92 -c 2 -a 0 -i 9 -k RTR
h -t 15.089672888 -s 15 -d -1 -p DSR -e 92 -c 2 -a 0 -i 9 -k RTR
+ -t 15.090105868 -s 21 -d 13 -p DSR -e 60 -c 2 -a 0 -i 23 -k RTR 
- -t 15.090105868 -s 21 -d 13 -p DSR -e 60 -c 2 -a 0 -i 23 -k RTR
h -t 15.090105868 -s 21 -d 13 -p DSR -e 60 -c 2 -a 0 -i 23 -k RTR
+ -t 15.091013366 -s 19 -d 10 -p DSR -e 60 -c 2 -a 0 -i 19 -k RTR 
- -t 15.091013366 -s 19 -d 10 -p DSR -e 60 -c 2 -a 0 -i 19 -k RTR
h -t 15.091013366 -s 19 -d 10 -p DSR -e 60 -c 2 -a 0 -i 19 -k RTR
+ -t 15.093106074 -s 19 -d 12 -p DSR -e 60 -c 2 -a 0 -i 22 -k RTR 
- -t 15.093106074 -s 19 -d 12 -p DSR -e 60 -c 2 -a 0 -i 22 -k RTR
h -t 15.093106074 -s 19 -d 12 -p DSR -e 60 -c 2 -a 0 -i 22 -k RTR
+ -t 15.094639005 -s 21 -d 10 -p DSR -e 60 -c 2 -a 0 -i 27 -k RTR 
- -t 15.094639005 -s 21 -d 10 -p DSR -e 60 -c 2 -a 0 -i 27 -k RTR
h -t 15.094639005 -s 21 -d 10 -p DSR -e 60 -c 2 -a 0 -i 27 -k RTR
+ -t 15.102088921 -s 21 -d 23 -p DSR -e 60 -c 2 -a 0 -i 28 -k RTR 
- -t 15.102088921 -s 21 -d 23 -p DSR -e 60 -c 2 -a 0 -i 28 -k RTR
h -t 15.102088921 -s 21 -d 23 -p DSR -e 60 -c 2 -a 0 -i 28 -k RTR
+ -t 15.103554281 -s 25 -d 1 -p DSR -e 52 -c 2 -a 0 -i 11 -k RTR 
- -t 15.103554281 -s 25 -d 1 -p DSR -e 52 -c 2 -a 0 -i 11 -k RTR
h -t 15.103554281 -s 25 -d 1 -p DSR -e 52 -c 2 -a 0 -i 11 -k RTR
+ -t 15.105851948 -s 23 -d 25 -p DSR -e 60 -c 2 -a 0 -i 28 -k RTR 
- -t 15.105851948 -s 23 -d 25 -p DSR -e 60 -c 2 -a 0 -i 28 -k RTR
h -t 15.105851948 -s 23 -d 25 -p DSR -e 60 -c 2 -a 0 -i 28 -k RTR
+ -t 15.107785337 -s 1 -d -1 -p cbr -e 512 -c 2 -a 0 -i 29 -k AGT 
- -t 15.107785337 -s 1 -d -1 -p cbr -e 512 -c 2 -a 0 -i 29 -k AGT
h -t 15.107785337 -s 1 -d -1 -p cbr -e 512 -c 2 -a 0 -i 29 -k AGT
+ -t 15.107810517 -s 27 -d 0 -p DSR -e 60 -c 2 -a 0 -i 10 -k RTR 
- -t 15.107810517 -s 27 -d 0 -p DSR -e 60 -c 2 -a 0 -i 10 -k RTR
h -t 15.107810517 -s 27 -d 0 -p DSR -e 60 -c 2 -a 0 -i 10 -k RTR
+ -t 15.109805087 -s 1 -d 25 -p cbr -e 552 -c 2 -a 0 -i 2 -k RTR 
- -t 15.109805087 -s 1 -d 25 -p cbr -e 552 -c 2 -a 0 -i 2 -k RTR
h -t 15.109805087 -s 1 -d 25 -p cbr -e 552 -c 2 -a 0 -i 2 -k RTR
+ -t 15.115819323 -s 25 -d 21 -p cbr -e 552 -c 2 -a 0 -i 2 -k RTR 
- -t 15.115819323 -s 25 -d 21 -p cbr -e 552 -c 2 -a 0 -i 2 -k RTR
h -t 15.115819323 -s 25 -d 21 -p cbr -e 552 -c 2 -a 0 -i 2 -k RTR
+ -t 15.117907366 -s 10 -d 25 -p DSR -e 60 -c 2 -a 0 -i 27 -k RTR 
- -t 15.117907366 -s 10 -d 25 -p DSR -e 60 -c 2 -a 0 -i 27 -k RTR
h -t 15.117907366 -s 10 -d 25 -p DSR -e 60 -c 2 -a 0 -i 27 -k RTR
+ -t 15.121188114 -s 25 -d 1 -p DSR -e 60 -c 2 -a 0 -i 27 -k RTR 
- -t 15.121188114 -s 25 -d 1 -p DSR -e 60 -c 2 -a 0 -i 27 -k RTR
h -t 15.121188114 -s 25 -d 1 -p DSR -e 60 -c 2 -a 0 -i 27 -k RTR
+ -t 15.127061169 -s 21 -d 16 -p DSR -e 68 -c 2 -a 0 -i 33 -k RTR 
- -t 15.127061169 -s 21 -d 16 -p DSR -e 68 -c 2 -a 0 -i 33 -k RTR
h -t 15.127061169 -s 21 -d 16 -p DSR -e 68 -c 2 -a 0 -i 33 -k RTR
r -t 15.127162114 -s 21 -d 21 -p cbr -e 512 -c 2 -a 0 -i 2 -k AGT
+ -t 15.129139447 -s 25 -d 1 -p DSR -e 60 -c 2 -a 0 -i 28 -k RTR 
- -t 15.129139447 -s 25 -d 1 -p DSR -e 60 -c 2 -a 0 -i 28 -k RTR
h -t 15.129139447 -s 25 -d 1 -p DSR -e 60 -c 2 -a 0 -i 28 -k RTR
+ -t 15.131197194 -s 0 -d 27 -p cbr -e 556 -c 2 -a 0 -i 0 -k RTR 
- -t 15.131197194 -s 0 -d 27 -p cbr -e 556 -c 2 -a 0 -i 0 -k RTR
h -t 15.131197194 -s 0 -d 27 -p cbr -e 556 -c 2 -a 0 -i 0 -k RTR
+ -t 15.139562257 -s 27 -d 9 -p cbr -e 556 -c 2 -a 0 -i 0 -k RTR 
- -t 15.139562257 -s 27 -d 9 -p cbr -e 556 -c 2 -a 0 -i 0 -k RTR
h -t 15.139562257 -s 27 -d 9 -p cbr -e 556 -c 2 -a 0 -i 0 -k RTR
+ -t 15.139805087 -s 1 -d 25 -p cbr -e 552 -c 2 -a 0 -i 29 -k RTR 
- -t 15.139805087 -s 1 -d 25 -p cbr -e 552 -c 2 -a 0 -i 29 -k RTR
h -t 15.139805087 -s 1 -d 25 -p cbr -e 552 -c 2 -a 0 -i 29 -k RTR
+ -t 15.143655387 -s 24 -d -1 -p cbr -e 512 -c 2 -a 0 -i 34 -k AGT 
- -t 15.143655387 -s 24 -d -1 -p cbr -e 512 -c 2 -a 0 -i 34 -k AGT
h -t 15.143655387 -s 24 -d -1 -p cbr -e 512 -c 2 -a 0 -i 34 -k AGT
+ -t 15.143655387 -s 24 -d 25 -p cbr -e 548 -c 2 -a 0 -i 34 -k RTR 
- -t 15.143655387 -s 24 -d 25 -p cbr -e 548 -c 2 -a 0 -i 34 -k RTR
h -t 15.143655387 -s 24 -d 25 -p cbr -e 548 -c 2 -a 0 -i 34 -k RTR
+ -t 15.145556964 -s 25 -d 21 -p cbr -e 552 -c 2 -a 0 -i 29 -k RTR 
- -t 15.145556964 -s 25 -d 21 -p cbr -e 552 -c 2 -a 0 -i 29 -k RTR
h -t 15.145556964 -s 25 -d 21 -p cbr -e 552 -c 2 -a 0 -i 29 -k RTR
+ -t 15.146226088 -s 0 -d -1 -p cbr -e 512 -c 2 -a 0 -i 35 -k AGT 
- -t 15.146226088 -s 0 -d -1 -p cbr -e 512 -c 2 -a 0 -i 35 -k AGT
h -t 15.146226088 -s 0 -d -1 -p cbr -e 512 -c 2 -a 0 -i 35 -k AGT
+ -t 15.146226088 -s 0 -d 27 -p cbr -e 556 -c 2 -a 0 -i 35 -k RTR 
- -t 15.146226088 -s 0 -d 27 -p cbr -e 556 -c 2 -a 0 -i 35 -k RTR
h -t 15.146226088 -s 0 -d 27 -p cbr -e 556 -c 2 -a 0 -i 35 -k RTR
+ -t 15.153561908 -s 9 -d 19 -p cbr -e 556 -c 2 -a 0 -i 0 -k RTR 
- -t 15.153561908 -s 9 -d 19 -p cbr -e 556 -c 2 -a 0 -i 0 -k RTR
h -t 15.153561908 -s 9 -d 19 -p cbr -e 556 -c 2 -a 0 -i 0 -k RTR
r -t 15.159588144 -s 19 -d 19 -p cbr -e 512 -c 2 -a 0 -i 0 -k AGT
+ -t 15.161197194 -s 0 -d 27 -p cbr -e 556 -c 2 -a 0 -i 20 -k RTR 
- -t 15.161197194 -s 0 -d 27 -p cbr -e 556 -c 2 -a 0 -i 20 -k RTR
h -t 15.161197194 -s 0 -d 27 -p cbr -e 556 -c 2 -a 0 -i 20 -k RTR
+ -t 15.161585477 -s 13 -d 25 -p DSR -e 60 -c 2 -a 0 -i 23 -k RTR 
- -t 15.161585477 -s 13 -d 25 -p DSR -e 60 -c 2 -a 0 -i 23 -k RTR
h -t 15.161585477 -s 13 -d 25 -p DSR -e 60 -c 2 -a 0 -i 23 -k RTR
+ -t 15.163767225 -s 16 -d 22 -p DSR -e 68 -c 2 -a 0 -i 33 -k RTR 
- -t 15.163767225 -s 16 -d 22 -p DSR -e 68 -c 2 -a 0 -i 33 -k RTR
h -t 15.163767225 -s 16 -d 22 -p DSR -e 68 -c 2 -a 0 -i 33 -k RTR
+ -t 15.165885794 -s 25 -d 1 -p DSR -e 60 -c 2 -a 0 -i 23 -k RTR 
- -t 15.165885794 -s 25 -d 1 -p DSR -e 60 -c 2 -a 0 -i 23 -k RTR
h -t 15.165885794 -s 25 -d 1 -p DSR -e 60 -c 2 -a 0 -i 23 -k RTR
r -t 15.171848461 -s 25 -d 25 -p cbr -e 512 -c 2 -a 0 -i 34 -k AGT
r -t 15.177802461 -s 21 -d 21 -p cbr -e 512 -c 2 -a 0 -i 29 -k AGT
+ -t 15.179839875 -s 9 -d 25 -p DSR -e 60 -c 2 -a 0 -i 25 -k RTR 
- -t 15.179839875 -s 9 -d 25 -p DSR -e 60 -c 2 -a 0 -i 25 -k RTR
h -t 15.179839875 -s 9 -d 25 -p DSR -e 60 -c 2 -a 0 -i 25 -k RTR
+ -t 15.181837289 -s 25 -d 1 -p DSR -e 60 -c 2 -a 0 -i 25 -k RTR 
- -t 15.181837289 -s 25 -d 1 -p DSR -e 60 -c 2 -a 0 -i 25 -k RTR
h -t 15.181837289 -s 25 -d 1 -p DSR -e 60 -c 2 -a 0 -i 25 -k RTR
+ -t 15.192140588 -s 27 -d 9 -p cbr -e 556 -c 2 -a 0 -i 35 -k RTR 
- -t 15.192140588 -s 27 -d 9 -p cbr -e 556 -c 2 -a 0 -i 35 -k RTR
h -t 15.192140588 -s 27 -d 9 -p cbr -e 556 -c 2 -a 0 -i 35 -k RTR
+ -t 15.198126473 -s 27 -d 9 -p cbr -e 556 -c 2 -a 0 -i 20 -k RTR 
- -t 15.198126473 -s 27 -d 9 -p cbr -e 556 -c 2 -a 0 -i 20 -k RTR
h -t 15.198126473 -s 27 -d 9 -p cbr -e 556 -c 2 -a 0 -i 20 -k RTR
+ -t 15.200469709 -s 22 -d 25 -p DSR -e 60 -c 2 -a 0 -i 17 -k RTR 
- -t 15.200469709 -s 22 -d 25 -p DSR -e 60 -c 2 -a 0 -i 17 -k RTR
h -t 15.200469709 -s 22 -d 25 -p DSR -e 60 -c 2 -a 0 -i 17 -k RTR
+ -t 15.202344691 -s 7 -d 1 -p DSR -e 52 -c 2 -a 0 -i 16 -k RTR 
- -t 15.202344691 -s 7 -d 1 -p DSR -e 52 -c 2 -a 0 -i 16 -k RTR
h -t 15.202344691 -s 7 -d 1 -p DSR -e 52 -c 2 -a 0 -i 16 -k RTR
+ -t 15.208321181 -s 9 -d 19 -p cbr -e 556 -c 2 -a 0 -i 35 -k RTR 
- -t 15.208321181 -s 9 -d 19 -p cbr -e 556 -c 2 -a 0 -i 35 -k RTR
h -t 15.208321181 -s 9 -d 19 -p cbr -e 556 -c 2 -a 0 -i 35 -k RTR
+ -t 15.216502634 -s 9 -d 19 -p cbr -e 556 -c 2 -a 0 -i 20 -k RTR 
- -t 15.216502634 -s 9 -d 19 -p cbr -e 556 -c 2 -a 0 -i 20 -k RTR
h -t 15.216502634 -s 9 -d 19 -p cbr -e 556 -c 2 -a 0 -i 20 -k RTR
+ -t 15.218715222 -s 18 -d 22 -p DSR -e 68 -c 2 -a 0 -i 18 -k RTR 
- -t 15.218715222 -s 18 -d 22 -p DSR -e 68 -c 2 -a 0 -i 18 -k RTR
h -t 15.218715222 -s 18 -d 22 -p DSR -e 68 -c 2 -a 0 -i 18 -k RTR
+ -t 15.220777222 -s 22 -d 4 -p DSR -e 68 -c 2 -a 0 -i 18 -k RTR 
- -t 15.220777222 -s 22 -d 4 -p DSR -e 68 -c 2 -a 0 -i 18 -k RTR
h -t 15.220777222 -s 22 -d 4 -p DSR -e 68 -c 2 -a 0 -i 18 -k RTR
+ -t 15.222940204 -s 22 -d 25 -p DSR -e 68 -c 2 -a 0 -i 33 -k RTR 
- -t 15.222940204 -s 22 -d 25 -p DSR -e 68 -c 2 -a 0 -i 33 -k RTR
h -t 15.222940204 -s 22 -d 25 -p DSR -e 68 -c 2 -a 0 -i 33 -k RTR
+ -t 15.225098440 -s 25 -d 1 -p DSR -e 60 -c 2 -a 0 -i 17 -k RTR 
- -t 15.225098440 -s 25 -d 1 -p DSR -e 60 -c 2 -a 0 -i 17 -k RTR
h -t 15.225098440 -s 25 -d 1 -p DSR -e 60 -c 2 -a 0 -i 17 -k RTR
+ -t 15.227301421 -s 25 -d 1 -p DSR -e 68 -c 2 -a 0 -i 33 -k RTR 
- -t 15.227301421 -s 25 -d 1 -p DSR -e 68 -c 2 -a 0 -i 33 -k RTR
h -t 15.227301421 -s 25 -d 1 -p DSR -e 68 -c 2 -a 0 -i 33 -k RTR
r -t 15.233297912 -s 19 -d 19 -p cbr -e 512 -c 2 -a 0 -i 35 -k AGT
+ -t 15.236021123 -s 1 -d -1 -p cbr -e 512 -c 2 -a 0 -i 36 -k AGT 
- -t 15.236021123 -s 1 -d -1 -p cbr -e 512 -c 2 -a 0 -i 36 -k AGT
h -t 15.236021123 -s 1 -d -1 -p cbr -e 512 -c 2 -a 0 -i 36 -k AGT
+ -t 15.236021123 -s 1 -d 25 -p cbr -e 552 -c 2 -a 0 -i 36 -k RTR 
- -t 15.236021123 -s 1 -d 25 -p cbr -e 552 -c 2 -a 0 -i 36 -k RTR
h -t 15.236021123 -s 1 -d 25 -p cbr -e 552 -c 2 -a 0 -i 36 -k RTR
r -t 15.239264893 -s 19 -d 19 -p cbr -e 512 -c 2 -a 0 -i 20 -k AGT
+ -t 15.241562307 -s 12 -d 25 -p DSR -e 60 -c 2 -a 0 -i 22 -k RTR 
- -t 15.241562307 -s 12 -d 25 -p DSR -e 60 -c 2 -a 0 -i 22 -k RTR
h -t 15.241562307 -s 12 -d 25 -p DSR -e 60 -c 2 -a 0 -i 22 -k RTR
+ -t 15.249485308 -s 25 -d 21 -p cbr -e 552 -c 2 -a 0 -i 36 -k RTR 
- -t 15.249485308 -s 25 -d 21 -p cbr -e 552 -c 2 -a 0 -i 36 -k RTR
h -t 15.249485308 -s 25 -d 21 -p cbr -e 552 -c 2 -a 0 -i 36 -k RTR
+ -t 15.251654290 -s 25 -d 0 -p DSR -e 60 -c 2 -a 0 -i 22 -k RTR 
- -t 15.251654290 -s 25 -d 0 -p DSR -e 60 -c 2 -a 0 -i 22 -k RTR
h -t 15.251654290 -s 25 -d 0 -p DSR -e 60 -c 2 -a 0 -i 22 -k RTR
+ -t 15.252506570 -s 24 -d -1 -p cbr -e 512 -c 2 -a 0 -i 37 -k AGT 
- -t 15.252506570 -s 24 -d -1 -p cbr -e 512 -c 2 -a 0 -i 37 -k AGT
h -t 15.252506570 -s 24 -d -1 -p cbr -e 512 -c 2 -a 0 -i 37 -k AGT
+ -t 15.252506570 -s 24 -d 25 -p cbr -e 548 -c 2 -a 0 -i 37 -k RTR 
- -t 15.252506570 -s 24 -d 25 -p cbr -e 548 -c 2 -a 0 -i 37 -k RTR
h -t 15.252506570 -s 24 -d 25 -p cbr -e 548 -c 2 -a 0 -i 37 -k RTR
+ -t 15.253918688 -s 0 -d -1 -p cbr -e 512 -c 2 -a 0 -i 38 -k AGT 
- -t 15.253918688 -s 0 -d -1 -p cbr -e 512 -c 2 -a 0 -i 38 -k AGT
h -t 15.253918688 -s 0 -d -1 -p cbr -e 512 -c 2 -a 0 -i 38 -k AGT
+ -t 15.253918688 -s 0 -d 27 -p cbr -e 532 -c 2 -a 0 -i 38 -k RTR 
- -t 15.253918688 -s 0 -d 27 -p cbr -e 532 -c 2 -a 0 -i 38 -k RTR
h -t 15.253918688 -s 0 -d 27 -p cbr -e 532 -c 2 -a 0 -i 38 -k RTR
r -t 15.262876919 -s 21 -d 21 -p cbr -e 512 -c 2 -a 0 -i 36 -k AGT
+ -t 15.265079901 -s 4 -d 0 -p DSR -e 68 -c 2 -a 0 -i 18 -k RTR 
- -t 15.265079901 -s 4 -d 0 -p DSR -e 68 -c 2 -a 0 -i 18 -k RTR
h -t 15.265079901 -s 4 -d 0 -p DSR -e 68 -c 2 -a 0 -i 18 -k RTR
+ -t 15.271123984 -s 27 -d 9 -p cbr -e 532 -c 2 -a 0 -i 38 -k RTR 
- -t 15.271123984 -s 27 -d 9 -p cbr -e 532 -c 2 -a 0 -i 38 -k RTR
h -t 15.271123984 -s 27 -d 9 -p cbr -e 532 -c 2 -a 0 -i 38 -k RTR
+ -t 15.279281261 -s 9 -d 19 -p cbr -e 532 -c 2 -a 0 -i 38 -k RTR 
- -t 15.279281261 -s 9 -d 19 -p cbr -e 532 -c 2 -a 0 -i 38 -k RTR
h -t 15.279281261 -s 9 -d 19 -p cbr -e 532 -c 2 -a 0 -i 38 -k RTR
r -t 15.285055497 -s 19 -d 19 -p cbr -e 512 -c 2 -a 0 -i 38 -k AGT
+ -t 15.287133733 -s 10 -d 4 -p DSR -e 60 -c 2 -a 0 -i 19 -k RTR 
- -t 15.287133733 -s 10 -d 4 -p DSR -e 60 -c 2 -a 0 -i 19 -k RTR
h -t 15.287133733 -s 10 -d 4 -p DSR -e 60 -c 2 -a 0 -i 19 -k RTR
r -t 15.293126189 -s 25 -d 25 -p cbr -e 512 -c 2 -a 0 -i 37 -k AGT
+ -t 15.295084661 -s 4 -d 0 -p DSR -e 60 -c 2 -a 0 -i 19 -k RTR 
- -t 15.295084661 -s 4 -d 0 -p DSR -e 60 -c 2 -a 0 -i 19 -k RTR
h -t 15.295084661 -s 4 -d 0 -p DSR -e 60 -c 2 -a 0 -i 19 -k RTR
+ -t 15.299598011 -s 13 -d 25 -p DSR -e 64 -c 2 -a 0 -i 24 -k RTR 
- -t 15.299598011 -s 13 -d 25 -p DSR -e 64 -c 2 -a 0 -i 24 -k RTR
h -t 15.299598011 -s 13 -d 25 -p DSR -e 64 -c 2 -a 0 -i 24 -k RTR
+ -t 15.301588247 -s 25 -d 1 -p DSR -e 64 -c 2 -a 0 -i 24 -k RTR 
- -t 15.301588247 -s 25 -d 1 -p DSR -e 64 -c 2 -a 0 -i 24 -k RTR
h -t 15.301588247 -s 25 -d 1 -p DSR -e 64 -c 2 -a 0 -i 24 -k RTR
+ -t 15.305075287 -s 1 -d -1 -p cbr -e 512 -c 2 -a 0 -i 39 -k AGT 
- -t 15.305075287 -s 1 -d -1 -p cbr -e 512 -c 2 -a 0 -i 39 -k AGT
h -t 15.305075287 -s 1 -d -1 -p cbr -e 512 -c 2 -a 0 -i 39 -k AGT
+ -t 15.305075287 -s 1 -d 25 -p cbr -e 532 -c 2 -a 0 -i 39 -k RTR 
- -t 15.305075287 -s 1 -d 25 -p cbr -e 532 -c 2 -a 0 -i 39 -k RTR
h -t 15.305075287 -s 1 -d 25 -p cbr -e 532 -c 2 -a 0 -i 39 -k RTR
+ -t 15.306481597 -s 13 -d 25 -p DSR -e 60 -c 2 -a 0 -i 13 -k RTR 
- -t 15.306481597 -s 13 -d 25 -p DSR -e 60 -c 2 -a 0 -i 13 -k RTR
h -t 15.306481597 -s 13 -d 25 -p DSR -e 60 -c 2 -a 0 -i 13 -k RTR
+ -t 15.308520068 -s 23 -d 4 -p DSR -e 60 -c 2 -a 0 -i 12 -k RTR 
- -t 15.308520068 -s 23 -d 4 -p DSR -e 60 -c 2 -a 0 -i 12 -k RTR
h -t 15.308520068 -s 23 -d 4 -p DSR -e 60 -c 2 -a 0 -i 12 -k RTR
+ -t 15.310538304 -s 4 -d 0 -p DSR -e 60 -c 2 -a 0 -i 12 -k RTR 
- -t 15.310538304 -s 4 -d 0 -p DSR -e 60 -c 2 -a 0 -i 12 -k RTR
h -t 15.310538304 -s 4 -d 0 -p DSR -e 60 -c 2 -a 0 -i 12 -k RTR
+ -t 15.316402849 -s 25 -d 21 -p cbr -e 532 -c 2 -a 0 -i 39 -k RTR 
- -t 15.316402849 -s 25 -d 21 -p cbr -e 532 -c 2 -a 0 -i 39 -k RTR
h -t 15.316402849 -s 25 -d 21 -p cbr -e 532 -c 2 -a 0 -i 39 -k RTR
r -t 15.322196849 -s 21 -d 21 -p cbr -e 512 -c 2 -a 0 -i 39 -k AGT
+ -t 15.324215418 -s 25 -d 0 -p DSR -e 60 -c 2 -a 0 -i 13 -k RTR 
- -t 15.324215418 -s 25 -d 0 -p DSR -e 60 -c 2 -a 0 -i 13 -k RTR
h -t 15.324215418 -s 25 -d 0 -p DSR -e 60 -c 2 -a 0 -i 13 -k RTR
+ -t 15.330905590 -s 21 -d 25 -p DSR -e 60 -c 2 -a 0 -i 14 -k RTR 