Sconfig 0.00000 tap: on snoop: rts? on errs? on
Sconfig 0.00000 salvage: on !bd replies? on
Sconfig 0.00000 grat error: on grat reply: on
Sconfig 0.00000 $reply for props: on ring 0 search: on
Sconfig 0.00000 using MOBICACHE
s 15.000000000 _0_ AGT  --- 0 cbr 512 [0 0 0 0] ------- [0:0 13:0 32 0] [0] 0 0
r 15.000000000 _0_ RTR  --- 0 cbr 512 [0 0 0 0] ------- [0:0 13:0 32 0] [0] 0 0
s 15.004587291 _0_ RTR  --- 1 DSR 32 [0 0 0 0] ------- [0:255 13:255 32 0] 1 [1 1] [0 1 0 0->0] [0 0 0 0->0]
r 15.005719624 _3_ RTR  --- 1 DSR 32 [0 ffffffff 0 800] ------- [0:255 13:255 32 0] 1 [1 1] [0 1 0 0->0] [0 0 0 0->0]
r 15.005719957 _6_ RTR  --- 1 DSR 32 [0 ffffffff 0 800] ------- [0:255 13:255 32 0] 1 [1 1] [0 1 0 0->0] [0 0 0 0->0]
r 15.005719957 _1_ RTR  --- 1 DSR 32 [0 ffffffff 0 800] ------- [0:255 13:255 32 0] 1 [1 1] [0 1 0 0->0] [0 0 0 0->0]
r 15.005720036 _4_ RTR  --- 1 DSR 32 [0 ffffffff 0 800] ------- [0:255 13:255 32 0] 1 [1 1] [0 1 0 0->0] [0 0 0 0->0]
r 15.005720036 _16_ RTR  --- 1 DSR 32 [0 ffffffff 0 800] ------- [0:255 13:255 32 0] 1 [1 1] [0 1 0 0->0] [0 0 0 0->0]
s 15.027844945 _0_ AGT  --- 2 cbr 512 [0 0 0 0] ------- [0:0 13:0 32 0] [1] 0 0
r 15.027844945 _0_ RTR  --- 2 cbr 512 [0 0 0 0] ------- [0:0 13:0 32 0] [1] 0 0
s 15.046321976 _0_ RTR  --- 4 DSR 32 [0 0 0 0] ------- [0:255 13:255 32 0] 1 [1 2] [0 2 0 0->16] [0 0 0 0->0]
r 15.047154309 _3_ RTR  --- 4 DSR 32 [0 ffffffff 0 800] ------- [0:255 13:255 32 0] 1 [1 2] [0 2 0 0->16] [0 0 0 0->0]
r 15.047154643 _6_ RTR  --- 4 DSR 32 [0 ffffffff 0 800] ------- [0:255 13:255 32 0] 1 [1 2] [0 2 0 0->16] [0 0 0 0->0]
r 15.047154643 _1_ RTR  --- 4 DSR 32 [0 ffffffff 0 800] ------- [0:255 13:255 32 0] 1 [1 2] [0 2 0 0->16] [0 0 0 0->0]
r 15.047154721 _4_ RTR  --- 4 DSR 32 [0 ffffffff 0 800] ------- [0:255 13:255 32 0] 1 [1 2] [0 2 0 0->16] [0 0 0 0->0]
r 15.047154721 _16_ RTR  --- 4 DSR 32 [0 ffffffff 0 800] ------- [0:255 13:255 32 0] 1 [1 2] [0 2 0 0->16] [0 0 0 0->0]
f 15.051916258 _6_ RTR  --- 4 DSR 48 [0 ffffffff 0 800] ------- [0:255 13:255 32 0] 2 [1 2] [0 2 0 0->16] [0 0 0 0->0]
f 15.052196082 _4_ RTR  --- 4 DSR 48 [0 ffffffff 0 800] ------- [0:255 13:255 32 0] 2 [1 2] [0 2 0 0->16] [0 0 0 0->0]
r 15.053096416 _1_ RTR  --- 4 DSR 48 [0 ffffffff 4 800] ------- [0:255 13:255 32 0] 2 [1 2] [0 2 0 0->16] [0 0 0 0->0]
r 15.053096416 _7_ RTR  --- 4 DSR 48 [0 ffffffff 4 800] ------- [0:255 13:255 32 0] 2 [1 2] [0 2 0 0->16] [0 0 0 0->0]
r 15.053096749 _3_ RTR  --- 4 DSR 48 [0 ffffffff 4 800] ------- [0:255 13:255 32 0] 2 [1 2] [0 2 0 0->16] [0 0 0 0->0]
r 15.053096749 _10_ RTR  --- 4 DSR 48 [0 ffffffff 4 800] ------- [0:255 13:255 32 0] 2 [1 2] [0 2 0 0->16] [0 0 0 0->0]
r 15.053096749 _16_ RTR  --- 4 DSR 48 [0 ffffffff 4 800] ------- [0:255 13:255 32 0] 2 [1 2] [0 2 0 0->16] [0 0 0 0->0]
r 15.053096749 _5_ RTR  --- 4 DSR 48 [0 ffffffff 4 800] ------- [0:255 13:255 32 0] 2 [1 2] [0 2 0 0->16] [0 0 0 0->0]
r 15.053096828 _6_ RTR  --- 4 DSR 48 [0 ffffffff 4 800] ------- [0:255 13:255 32 0] 2 [1 2] [0 2 0 0->16] [0 0 0 0->0]
r 15.053096828 _0_ RTR  --- 4 DSR 48 [0 ffffffff 4 800] ------- [0:255 13:255 32 0] 2 [1 2] [0 2 0 0->16] [0 0 0 0->0]
r 15.053096828 _2_ RTR  --- 4 DSR 48 [0 ffffffff 4 800] ------- [0:255 13:255 32 0] 2 [1 2] [0 2 0 0->16] [0 0 0 0->0]
r 15.053096828 _8_ RTR  --- 4 DSR 48 [0 ffffffff 4 800] ------- [0:255 13:255 32 0] 2 [1 2] [0 2 0 0->16] [0 0 0 0->0]
r 15.054127161 _3_ RTR  --- 4 DSR 48 [0 ffffffff 6 800] ------- [0:255 13:255 32 0] 2 [1 2] [0 2 0 0->16] [0 0 0 0->0]
r 15.054127161 _9_ RTR  --- 4 DSR 48 [0 ffffffff 6 800] ------- [0:255 13:255 32 0] 2 [1 2] [0 2 0 0->16] [0 0 0 0->0]
r 15.054127494 _0_ RTR  --- 4 DSR 48 [0 ffffffff 6 800] ------- [0:255 13:255 32 0] 2 [1 2] [0 2 0 0->16] [0 0 0 0->0]
r 15.054127494 _12_ RTR  --- 4 DSR 48 [0 ffffffff 6 800] ------- [0:255 13:255 32 0] 2 [1 2] [0 2 0 0->16] [0 0 0 0->0]
r 15.054127494 _7_ RTR  --- 4 DSR 48 [0 ffffffff 6 800] ------- [0:255 13:255 32 0] 2 [1 2] [0 2 0 0->16] [0 0 0 0->0]
r 15.054127573 _4_ RTR  --- 4 DSR 48 [0 ffffffff 6 800] ------- [0:255 13:255 32 0] 2 [1 2] [0 2 0 0->16] [0 0 0 0->0]
r 15.054127573 _10_ RTR  --- 4 DSR 48 [0 ffffffff 6 800] ------- [0:255 13:255 32 0] 2 [1 2] [0 2 0 0->16] [0 0 0 0->0]
f 15.055258971 _16_ RTR  --- 4 DSR 48 [0 ffffffff 0 800] ------- [0:255 13:255 32 0] 2 [1 2] [0 2 0 0->16] [0 0 0 0->0]
f 15.055311576 _2_ RTR  --- 4 DSR 68 [0 ffffffff 4 800] ------- [0:255 13:255 32 0] 3 [1 2] [0 2 0 0->16] [0 0 0 0->0]
f 15.055622748 _3_ RTR  --- 4 DSR 48 [0 ffffffff 0 800] ------- [0:255 13:255 32 0] 2 [1 2] [0 2 0 0->16] [0 0 0 0->0]
f 15.056034174 _5_ RTR  --- 4 DSR 68 [0 ffffffff 4 800] ------- [0:255 13:255 32 0] 3 [1 2] [0 2 0 0->16] [0 0 0 0->0]
f 15.056413040 _8_ RTR  --- 4 DSR 68 [0 ffffffff 4 800] ------- [0:255 13:255 32 0] 3 [1 2] [0 2 0 0->16] [0 0 0 0->0]
f 15.056602401 _1_ RTR  --- 4 DSR 48 [0 ffffffff 0 800] ------- [0:255 13:255 32 0] 2 [1 2] [0 2 0 0->16] [0 0 0 0->0]
r 15.056611909 _5_ RTR  --- 4 DSR 68 [0 ffffffff 2 800] ------- [0:255 13:255 32 0] 3 [1 2] [0 2 0 0->16] [0 0 0 0->0]
r 15.056611909 _15_ RTR  --- 4 DSR 68 [0 ffffffff 2 800] ------- [0:255 13:255 32 0] 3 [1 2] [0 2 0 0->16] [0 0 0 0->0]
r 15.056612242 _1_ RTR  --- 4 DSR 68 [0 ffffffff 2 800] ------- [0:255 13:255 32 0] 3 [1 2] [0 2 0 0->16] [0 0 0 0->0]
r 15.056612242 _8_ RTR  --- 4 DSR 68 [0 ffffffff 2 800] ------- [0:255 13:255 32 0] 3 [1 2] [0 2 0 0->16] [0 0 0 0->0]
r 15.056612321 _16_ RTR  --- 4 DSR 68 [0 ffffffff 2 800] ------- [0:255 13:255 32 0] 3 [1 2] [0 2 0 0->16] [0 0 0 0->0]
r 15.056612321 _4_ RTR  --- 4 DSR 68 [0 ffffffff 2 800] ------- [0:255 13:255 32 0] 3 [1 2] [0 2 0 0->16] [0 0 0 0->0]
f 15.057443914 _12_ RTR  --- 4 DSR 68 [0 ffffffff 6 800] ------- [0:255 13:255 32 0] 3 [1 2] [0 2 0 0->16] [0 0 0 0->0]
r 15.057722576 _5_ RTR  --- 4 DSR 68 [0 ffffffff 8 800] ------- [0:255 13:255 32 0] 3 [1 2] [0 2 0 0->16] [0 0 0 0->0]
r 15.057722576 _11_ RTR  --- 4 DSR 68 [0 ffffffff 8 800] ------- [0:255 13:255 32 0] 3 [1 2] [0 2 0 0->16] [0 0 0 0->0]
r 15.057722909 _2_ RTR  --- 4 DSR 68 [0 ffffffff 8 800] ------- [0:255 13:255 32 0] 3 [1 2] [0 2 0 0->16] [0 0 0 0->0]
r 15.057722909 _7_ RTR  --- 4 DSR 68 [0 ffffffff 8 800] ------- [0:255 13:255 32 0] 3 [1 2] [0 2 0 0->16] [0 0 0 0->0]
r 15.057722909 _14_ RTR  --- 4 DSR 68 [0 ffffffff 8 800] ------- [0:255 13:255 32 0] 3 [1 2] [0 2 0 0->16] [0 0 0 0->0]
r 15.057722988 _10_ RTR  --- 4 DSR 68 [0 ffffffff 8 800] ------- [0:255 13:255 32 0] 3 [1 2] [0 2 0 0->16] [0 0 0 0->0]
r 15.057722988 _4_ RTR  --- 4 DSR 68 [0 ffffffff 8 800] ------- [0:255 13:255 32 0] 3 [1 2] [0 2 0 0->16] [0 0 0 0->0]
f 15.058237101 _14_ RTR  --- 4 DSR 92 [0 ffffffff 8 800] ------- [0:255 13:255 32 0] 4 [1 2] [0 2 0 0->16] [0 0 0 0->0]
r 15.059052909 _2_ RTR  --- 4 DSR 68 [0 ffffffff 5 800] ------- [0:255 13:255 32 0] 3 [1 2] [0 2 0 0->16] [0 0 0 0->0]
r 15.059052909 _8_ RTR  --- 4 DSR 68 [0 ffffffff 5 800] ------- [0:255 13:255 32 0] 3 [1 2] [0 2 0 0->16] [0 0 0 0->0]
r 15.059053242 _4_ RTR  --- 4 DSR 68 [0 ffffffff 5 800] ------- [0:255 13:255 32 0] 3 [1 2] [0 2 0 0->16] [0 0 0 0->0]
r 15.059053242 _11_ RTR  --- 4 DSR 68 [0 ffffffff 5 800] ------- [0:255 13:255 32 0] 3 [1 2] [0 2 0 0->16] [0 0 0 0->0]
r 15.059053242 _15_ RTR  --- 4 DSR 68 [0 ffffffff 5 800] ------- [0:255 13:255 32 0] 3 [1 2] [0 2 0 0->16] [0 0 0 0->0]
r 15.059053321 _7_ RTR  --- 4 DSR 68 [0 ffffffff 5 800] ------- [0:255 13:255 32 0] 3 [1 2] [0 2 0 0->16] [0 0 0 0->0]
r 15.059053321 _1_ RTR  --- 4 DSR 68 [0 ffffffff 5 800] ------- [0:255 13:255 32 0] 3 [1 2] [0 2 0 0->16] [0 0 0 0->0]
f 15.059410601 _9_ RTR  --- 4 DSR 68 [0 ffffffff 6 800] ------- [0:255 13:255 32 0] 3 [1 2] [0 2 0 0->16] [0 0 0 0->0]
r 15.060490935 _6_ RTR  --- 4 DSR 68 [0 ffffffff 9 800] ------- [0:255 13:255 32 0] 3 [1 2] [0 2 0 0->16] [0 0 0 0->0]
r 15.060490935 _12_ RTR  --- 4 DSR 68 [0 ffffffff 9 800] ------- [0:255 13:255 32 0] 3 [1 2] [0 2 0 0->16] [0 0 0 0->0]
r 15.060491268 _3_ RTR  --- 4 DSR 68 [0 ffffffff 9 800] ------- [0:255 13:255 32 0] 3 [1 2] [0 2 0 0->16] [0 0 0 0->0]
r 15.060491268 _10_ RTR  --- 4 DSR 68 [0 ffffffff 9 800] ------- [0:255 13:255 32 0] 3 [1 2] [0 2 0 0->16] [0 0 0 0->0]
r 15.060491347 _7_ RTR  --- 4 DSR 68 [0 ffffffff 9 800] ------- [0:255 13:255 32 0] 3 [1 2] [0 2 0 0->16] [0 0 0 0->0]
r 15.060491347 _13_ RTR  --- 4 DSR 68 [0 ffffffff 9 800] ------- [0:255 13:255 32 0] 3 [1 2] [0 2 0 0->16] [0 0 0 0->0]
f 15.060546801 _10_ RTR  --- 4 DSR 68 [0 ffffffff 4 800] ------- [0:255 13:255 32 0] 3 [1 2] [0 2 0 0->16] [0 0 0 0->0]
r 15.061461601 _0_ RTR  --- 4 DSR 48 [0 ffffffff 3 800] ------- [0:255 13:255 32 0] 2 [1 2] [0 2 0 0->16] [0 0 0 0->0]
r 15.061461935 _4_ RTR  --- 4 DSR 48 [0 ffffffff 3 800] ------- [0:255 13:255 32 0] 2 [1 2] [0 2 0 0->16] [0 0 0 0->0]
r 15.061462013 _1_ RTR  --- 4 DSR 48 [0 ffffffff 3 800] ------- [0:255 13:255 32 0] 2 [1 2] [0 2 0 0->16] [0 0 0 0->0]
r 15.061621268 _9_ RTR  --- 4 DSR 68 [0 ffffffff c 800] ------- [0:255 13:255 32 0] 3 [1 2] [0 2 0 0->16] [0 0 0 0->0]
r 15.061621601 _13_ RTR  --- 4 DSR 68 [0 ffffffff c 800] ------- [0:255 13:255 32 0] 3 [1 2] [0 2 0 0->16] [0 0 0 0->0]
f 15.062902889 _7_ RTR  --- 4 DSR 68 [0 ffffffff 4 800] ------- [0:255 13:255 32 0] 3 [1 2] [0 2 0 0->16] [0 0 0 0->0]
r 15.062917063 _1_ RTR  --- 4 DSR 48 [0 ffffffff 10 800] ------- [0:255 13:255 32 0] 2 [1 2] [0 2 0 0->16] [0 0 0 0->0]
r 15.062917396 _4_ RTR  --- 4 DSR 48 [0 ffffffff 10 800] ------- [0:255 13:255 32 0] 2 [1 2] [0 2 0 0->16] [0 0 0 0->0]
r 15.062917396 _15_ RTR  --- 4 DSR 48 [0 ffffffff 10 800] ------- [0:255 13:255 32 0] 2 [1 2] [0 2 0 0->16] [0 0 0 0->0]
r 15.062917475 _0_ RTR  --- 4 DSR 48 [0 ffffffff 10 800] ------- [0:255 13:255 32 0] 2 [1 2] [0 2 0 0->16] [0 0 0 0->0]
r 15.062917475 _2_ RTR  --- 4 DSR 48 [0 ffffffff 10 800] ------- [0:255 13:255 32 0] 2 [1 2] [0 2 0 0->16] [0 0 0 0->0]
r 15.063787396 _4_ RTR  --- 4 DSR 48 [0 ffffffff 1 800] ------- [0:255 13:255 32 0] 2 [1 2] [0 2 0 0->16] [0 0 0 0->0]
r 15.063787396 _16_ RTR  --- 4 DSR 48 [0 ffffffff 1 800] ------- [0:255 13:255 32 0] 2 [1 2] [0 2 0 0->16] [0 0 0 0->0]
r 15.063787730 _0_ RTR  --- 4 DSR 48 [0 ffffffff 1 800] ------- [0:255 13:255 32 0] 2 [1 2] [0 2 0 0->16] [0 0 0 0->0]
r 15.063787730 _7_ RTR  --- 4 DSR 48 [0 ffffffff 1 800] ------- [0:255 13:255 32 0] 2 [1 2] [0 2 0 0->16] [0 0 0 0->0]
r 15.063787730 _2_ RTR  --- 4 DSR 48 [0 ffffffff 1 800] ------- [0:255 13:255 32 0] 2 [1 2] [0 2 0 0->16] [0 0 0 0->0]
r 15.063787809 _3_ RTR  --- 4 DSR 48 [0 ffffffff 1 800] ------- [0:255 13:255 32 0] 2 [1 2] [0 2 0 0->16] [0 0 0 0->0]
r 15.063787809 _5_ RTR  --- 4 DSR 48 [0 ffffffff 1 800] ------- [0:255 13:255 32 0] 2 [1 2] [0 2 0 0->16] [0 0 0 0->0]
r 15.063787809 _15_ RTR  --- 4 DSR 48 [0 ffffffff 1 800] ------- [0:255 13:255 32 0] 2 [1 2] [0 2 0 0->16] [0 0 0 0->0]
s 15.064230700 _13_ RTR  --- 7 DSR 60 [0 0 0 0] ------- [13:255 0:255 254 12] 4 [0 2] [1 2 4 0->13] [0 0 0 0->0]
f 15.064639316 _15_ RTR  --- 4 DSR 92 [0 ffffffff 2 800] ------- [0:255 13:255 32 0] 4 [1 2] [0 2 0 0->16] [0 0 0 0->0]
r 15.065278063 _4_ RTR  --- 4 DSR 68 [0 ffffffff 7 800] ------- [0:255 13:255 32 0] 3 [1 2] [0 2 0 0->16] [0 0 0 0->0]
r 15.065278063 _10_ RTR  --- 4 DSR 68 [0 ffffffff 7 800] ------- [0:255 13:255 32 0] 3 [1 2] [0 2 0 0->16] [0 0 0 0->0]
r 15.065278396 _1_ RTR  --- 4 DSR 68 [0 ffffffff 7 800] ------- [0:255 13:255 32 0] 3 [1 2] [0 2 0 0->16] [0 0 0 0->0]
r 15.065278396 _6_ RTR  --- 4 DSR 68 [0 ffffffff 7 800] ------- [0:255 13:255 32 0] 3 [1 2] [0 2 0 0->16] [0 0 0 0->0]
r 15.065278396 _13_ RTR  --- 4 DSR 68 [0 ffffffff 7 800] ------- [0:255 13:255 32 0] 3 [1 2] [0 2 0 0->16] [0 0 0 0->0]
r 15.065278396 _8_ RTR  --- 4 DSR 68 [0 ffffffff 7 800] ------- [0:255 13:255 32 0] 3 [1 2] [0 2 0 0->16] [0 0 0 0->0]
r 15.065278475 _9_ RTR  --- 4 DSR 68 [0 ffffffff 7 800] ------- [0:255 13:255 32 0] 3 [1 2] [0 2 0 0->16] [0 0 0 0->0]
r 15.065278475 _3_ RTR  --- 4 DSR 68 [0 ffffffff 7 800] ------- [0:255 13:255 32 0] 3 [1 2] [0 2 0 0->16] [0 0 0 0->0]
r 15.065278475 _5_ RTR  --- 4 DSR 68 [0 ffffffff 7 800] ------- [0:255 13:255 32 0] 3 [1 2] [0 2 0 0->16] [0 0 0 0->0]
r 15.065278475 _11_ RTR  --- 4 DSR 68 [0 ffffffff 7 800] ------- [0:255 13:255 32 0] 3 [1 2] [0 2 0 0->16] [0 0 0 0->0]
f 15.066108980 _11_ RTR  --- 4 DSR 92 [0 ffffffff 8 800] ------- [0:255 13:255 32 0] 4 [1 2] [0 2 0 0->16] [0 0 0 0->0]
r 15.066708396 _7_ RTR  --- 4 DSR 68 [0 ffffffff a 800] ------- [0:255 13:255 32 0] 3 [1 2] [0 2 0 0->16] [0 0 0 0->0]
r 15.066708396 _13_ RTR  --- 4 DSR 68 [0 ffffffff a 800] ------- [0:255 13:255 32 0] 3 [1 2] [0 2 0 0->16] [0 0 0 0->0]
r 15.066708730 _4_ RTR  --- 4 DSR 68 [0 ffffffff a 800] ------- [0:255 13:255 32 0] 3 [1 2] [0 2 0 0->16] [0 0 0 0->0]
r 15.066708730 _9_ RTR  --- 4 DSR 68 [0 ffffffff a 800] ------- [0:255 13:255 32 0] 3 [1 2] [0 2 0 0->16] [0 0 0 0->0]
r 15.066708730 _11_ RTR  --- 4 DSR 68 [0 ffffffff a 800] ------- [0:255 13:255 32 0] 3 [1 2] [0 2 0 0->16] [0 0 0 0->0]
r 15.066708809 _12_ RTR  --- 4 DSR 68 [0 ffffffff a 800] ------- [0:255 13:255 32 0] 3 [1 2] [0 2 0 0->16] [0 0 0 0->0]
r 15.066708809 _6_ RTR  --- 4 DSR 68 [0 ffffffff a 800] ------- [0:255 13:255 32 0] 3 [1 2] [0 2 0 0->16] [0 0 0 0->0]
r 15.066708809 _8_ RTR  --- 4 DSR 68 [0 ffffffff a 800] ------- [0:255 13:255 32 0] 3 [1 2] [0 2 0 0->16] [0 0 0 0->0]
r 15.066708809 _14_ RTR  --- 4 DSR 68 [0 ffffffff a 800] ------- [0:255 13:255 32 0] 3 [1 2] [0 2 0 0->16] [0 0 0 0->0]
r 15.068492396 _12_ RTR  --- 7 DSR 60 [13a c d 800] ------- [13:255 0:255 254 12] 4 [0 2] [1 2 4 0->13] [0 0 0 0->0]
f 15.068492396 _12_ RTR  --- 7 DSR 60 [13a c d 800] ------- [13:255 0:255 253 6] 4 [0 2] [1 2 4 0->13] [0 0 0 0->0]
s 15.070102504 _13_ RTR  --- 6 DSR 60 [0 0 0 0] ------- [13:255 0:255 254 9] 4 [0 2] [1 2 4 0->13] [0 0 0 0->0]
r 15.070339858 _2_ RTR  --- 4 DSR 92 [0 ffffffff f 800] ------- [0:255 13:255 32 0] 4 [1 2] [0 2 0 0->16] [0 0 0 0->0]
r 15.072196063 _11_ RTR  --- 4 DSR 92 [0 ffffffff e 800] ------- [0:255 13:255 32 0] 4 [1 2] [0 2 0 0->16] [0 0 0 0->0]
r 15.072196396 _8_ RTR  --- 4 DSR 92 [0 ffffffff e 800] ------- [0:255 13:255 32 0] 4 [1 2] [0 2 0 0->16] [0 0 0 0->0]
r 15.072196396 _13_ RTR  --- 4 DSR 92 [0 ffffffff e 800] ------- [0:255 13:255 32 0] 4 [1 2] [0 2 0 0->16] [0 0 0 0->0]
r 15.072196475 _10_ RTR  --- 4 DSR 92 [0 ffffffff e 800] ------- [0:255 13:255 32 0] 4 [1 2] [0 2 0 0->16] [0 0 0 0->0]
s 15.073723925 _13_ RTR  --- 9 DSR 60 [0 0 0 0] ------- [13:255 0:255 254 10] 4 [0 2] [1 2 4 0->13] [0 0 0 0->0]
r 15.073738396 _8_ RTR  --- 4 DSR 92 [0 ffffffff b 800] ------- [0:255 13:255 32 0] 4 [1 2] [0 2 0 0->16] [0 0 0 0->0]
r 15.073738396 _14_ RTR  --- 4 DSR 92 [0 ffffffff b 800] ------- [0:255 13:255 32 0] 4 [1 2] [0 2 0 0->16] [0 0 0 0->0]
r 15.073738730 _5_ RTR  --- 4 DSR 92 [0 ffffffff b 800] ------- [0:255 13:255 32 0] 4 [1 2] [0 2 0 0->16] [0 0 0 0->0]
r 15.073738730 _10_ RTR  --- 4 DSR 92 [0 ffffffff b 800] ------- [0:255 13:255 32 0] 4 [1 2] [0 2 0 0->16] [0 0 0 0->0]
r 15.073738809 _13_ RTR  --- 4 DSR 92 [0 ffffffff b 800] ------- [0:255 13:255 32 0] 4 [1 2] [0 2 0 0->16] [0 0 0 0->0]
r 15.073738809 _7_ RTR  --- 4 DSR 92 [0 ffffffff b 800] ------- [0:255 13:255 32 0] 4 [1 2] [0 2 0 0->16] [0 0 0 0->0]
s 15.074249282 _13_ RTR  --- 8 DSR 60 [0 0 0 0] ------- [13:255 0:255 254 7] 4 [0 2] [1 2 4 0->13] [0 0 0 0->0]
r 15.075423045 _9_ RTR  --- 6 DSR 60 [13a 9 d 800] ------- [13:255 0:255 254 9] 4 [0 2] [1 2 4 0->13] [0 0 0 0->0]
f 15.075423045 _9_ RTR  --- 6 DSR 60 [13a 9 d 800] ------- [13:255 0:255 253 6] 4 [0 2] [1 2 4 0->13] [0 0 0 0->0]
s 15.076813623 _13_ RTR  --- 11 DSR 68 [0 0 0 0] ------- [13:255 0:255 254 11] 5 [0 2] [1 2 5 0->13] [0 0 0 0->0]
r 15.077380045 _6_ RTR  --- 6 DSR 60 [13a 6 9 800] ------- [13:255 0:255 253 6] 4 [0 2] [1 2 4 0->13] [0 0 0 0->0]
f 15.077380045 _6_ RTR  --- 6 DSR 60 [13a 6 9 800] ------- [13:255 0:255 252 0] 4 [0 2] [1 2 4 0->13] [0 0 0 0->0]
r 15.079638045 _0_ RTR  --- 6 DSR 60 [13a 0 6 800] ------- [13:255 0:255 252 0] 4 [0 2] [1 2 4 0->13] [0 0 0 0->0]
SFESTs 15.079638045 _0_ 0 [0 -> 13] 1(1) to 6 [0 |6 9 13 ]
SFESTs 15.079638045 _0_ 2 [0 -> 13] 1(1) to 6 [0 |6 9 13 ]
s 15.079638045 _0_ RTR  --- 0 cbr 556 [0 0 0 0] ------- [0:0 13:0 32 6] [0] 0 0
s 15.080554273 _13_ RTR  --- 10 DSR 68 [0 0 0 0] ------- [13:255 0:255 254 14] 5 [0 2] [1 2 5 0->13] [0 0 0 0->0]
r 15.086144045 _6_ RTR  --- 0 cbr 556 [13a 6 0 800] ------- [0:0 13:0 32 6] [0] 1 0
f 15.086144045 _6_ RTR  --- 0 cbr 556 [13a 6 0 800] ------- [0:0 13:0 31 9] [0] 1 0
s 15.086218108 _0_ AGT  --- 12 cbr 512 [0 0 0 0] ------- [0:0 13:0 32 0] [2] 0 0
r 15.086218108 _0_ RTR  --- 12 cbr 512 [0 0 0 0] ------- [0:0 13:0 32 0] [2] 0 0
SFESTs 15.086218108 _0_ 12 [0 -> 13] 1(1) to 6 [0 |6 9 13 ]
s 15.086218108 _0_ RTR  --- 12 cbr 556 [0 0 0 0] ------- [0:0 13:0 32 6] [2] 0 0
r 15.092070711 _6_ RTR  --- 12 cbr 556 [13a 6 0 800] ------- [0:0 13:0 32 6] [2] 1 0
f 15.092070711 _6_ RTR  --- 12 cbr 556 [13a 6 0 800] ------- [0:0 13:0 31 9] [2] 1 0
r 15.094473654 _7_ RTR  --- 8 DSR 60 [13a 7 d 800] ------- [13:255 0:255 254 7] 4 [0 2] [1 2 4 0->13] [0 0 0 0->0]
f 15.094473654 _7_ RTR  --- 8 DSR 60 [13a 7 d 800] ------- [13:255 0:255 253 4] 4 [0 2] [1 2 4 0->13] [0 0 0 0->0]
r 15.100508930 _9_ RTR  --- 0 cbr 556 [13a 9 6 800] ------- [0:0 13:0 31 9] [0] 2 0
f 15.100508930 _9_ RTR  --- 0 cbr 556 [13a 9 6 800] ------- [0:0 13:0 30 13] [0] 2 0
r 15.102766676 _4_ RTR  --- 8 DSR 60 [13a 4 7 800] ------- [13:255 0:255 253 4] 4 [0 2] [1 2 4 0->13] [0 0 0 0->0]
f 15.102766676 _4_ RTR  --- 8 DSR 60 [13a 4 7 800] ------- [13:255 0:255 252 0] 4 [0 2] [1 2 4 0->13] [0 0 0 0->0]
r 15.109619990 _13_ RTR  --- 0 cbr 556 [13a d 9 800] ------- [0:0 13:0 30 13] [0] 3 0
r 15.109619990 _13_ AGT  --- 0 cbr 512 [13a d 9 800] ------- [0:0 13:0 30 13] [0] 3 0
s 15.109638045 _0_ RTR  --- 2 cbr 556 [0 0 0 0] ------- [0:0 13:0 32 6] [1] 0 0
r 15.111741990 _14_ RTR  --- 10 DSR 68 [13a e d 800] ------- [13:255 0:255 254 14] 5 [0 2] [1 2 5 0->13] [0 0 0 0->0]
f 15.111741990 _14_ RTR  --- 10 DSR 68 [13a e d 800] ------- [13:255 0:255 253 8] 5 [0 2] [1 2 5 0->13] [0 0 0 0->0]
s 15.113202853 _0_ AGT  --- 13 cbr 512 [0 0 0 0] ------- [0:0 13:0 32 0] [3] 0 0
r 15.113202853 _0_ RTR  --- 13 cbr 512 [0 0 0 0] ------- [0:0 13:0 32 0] [3] 0 0
SFs 15.113202853 _0_ 13 [0 -> 13] 1(0) to 6 
s 15.113202853 _0_ RTR  --- 13 cbr 532 [0 0 0 0] ------- [0:0 13:0 32 6] [3] 0 0
r 15.114783990 _8_ RTR  --- 10 DSR 68 [13a 8 e 800] ------- [13:255 0:255 253 8] 5 [0 2] [1 2 5 0->13] [0 0 0 0->0]
f 15.114783990 _8_ RTR  --- 10 DSR 68 [13a 8 e 800] ------- [13:255 0:255 252 4] 5 [0 2] [1 2 5 0->13] [0 0 0 0->0]
r 15.116806226 _4_ RTR  --- 10 DSR 68 [13a 4 8 800] ------- [13:255 0:255 252 4] 5 [0 2] [1 2 5 0->13] [0 0 0 0->0]
f 15.116806226 _4_ RTR  --- 10 DSR 68 [13a 4 8 800] ------- [13:255 0:255 251 0] 5 [0 2] [1 2 5 0->13] [0 0 0 0->0]
r 15.122981814 _9_ RTR  --- 12 cbr 556 [13a 9 6 800] ------- [0:0 13:0 31 9] [2] 2 0
f 15.122981814 _9_ RTR  --- 12 cbr 556 [13a 9 6 800] ------- [0:0 13:0 30 13] [2] 2 0
r 15.128928050 _13_ RTR  --- 12 cbr 556 [13a d 9 800] ------- [0:0 13:0 30 13] [2] 3 0
r 15.128928050 _13_ AGT  --- 12 cbr 512 [13a d 9 800] ------- [0:0 13:0 30 13] [2] 3 0
r 15.130966717 _6_ RTR  --- 7 DSR 60 [13a 6 c 800] ------- [13:255 0:255 253 6] 4 [0 2] [1 2 4 0->13] [0 0 0 0->0]
f 15.130966717 _6_ RTR  --- 7 DSR 60 [13a 6 c 800] ------- [13:255 0:255 252 0] 4 [0 2] [1 2 4 0->13] [0 0 0 0->0]
r 15.136963384 _6_ RTR  --- 2 cbr 556 [13a 6 0 800] ------- [0:0 13:0 32 6] [1] 1 0
f 15.136963384 _6_ RTR  --- 2 cbr 556 [13a 6 0 800] ------- [0:0 13:0 31 9] [1] 1 0
r 15.139141384 _0_ RTR  --- 7 DSR 60 [13a 0 6 800] ------- [13:255 0:255 252 0] 4 [0 2] [1 2 4 0->13] [0 0 0 0->0]
r 15.144955384 _6_ RTR  --- 13 cbr 532 [13a 6 0 800] ------- [0:0 13:0 32 6] [3] 1 0
SFf 15.144955384 _6_ 13 [0 -> 13] 1 to 9
f 15.144955384 _6_ RTR  --- 13 cbr 532 [13a 6 0 800] ------- [0:0 13:0 31 9] [3] 1 0
r 15.150900384 _9_ RTR  --- 2 cbr 556 [13a 9 6 800] ------- [0:0 13:0 31 9] [1] 2 0
f 15.150900384 _9_ RTR  --- 2 cbr 556 [13a 9 6 800] ------- [0:0 13:0 30 13] [1] 2 0
r 15.156613717 _9_ RTR  --- 13 cbr 532 [13a 9 6 800] ------- [0:0 13:0 31 9] [3] 2 0
SFf 15.156613717 _9_ 13 [0 -> 13] 1 to 13
f 15.156613717 _9_ RTR  --- 13 cbr 532 [13a 9 6 800] ------- [0:0 13:0 30 13] [3] 2 0
r 15.162539953 _13_ RTR  --- 2 cbr 556 [13a d 9 800] ------- [0:0 13:0 30 13] [1] 3 0
r 15.162539953 _13_ AGT  --- 2 cbr 512 [13a d 9 800] ------- [0:0 13:0 30 13] [1] 3 0
r 15.164722189 _11_ RTR  --- 11 DSR 68 [13a b d 800] ------- [13:255 0:255 254 11] 5 [0 2] [1 2 5 0->13] [0 0 0 0->0]
f 15.164722189 _11_ RTR  --- 11 DSR 68 [13a b d 800] ------- [13:255 0:255 253 8] 5 [0 2] [1 2 5 0->13] [0 0 0 0->0]
r 15.166759935 _10_ RTR  --- 9 DSR 60 [13a a d 800] ------- [13:255 0:255 254 10] 4 [0 2] [1 2 4 0->13] [0 0 0 0->0]
f 15.166759935 _10_ RTR  --- 9 DSR 60 [13a a d 800] ------- [13:255 0:255 253 4] 4 [0 2] [1 2 4 0->13] [0 0 0 0->0]
r 15.168848837 _0_ RTR  --- 8 DSR 60 [13a 0 4 800] ------- [13:255 0:255 252 0] 4 [0 2] [1 2 4 0->13] [0 0 0 0->0]
r 15.171031819 _0_ RTR  --- 10 DSR 68 [13a 0 4 800] ------- [13:255 0:255 251 0] 5 [0 2] [1 2 5 0->13] [0 0 0 0->0]
s 15.175426225 _0_ AGT  --- 14 cbr 512 [0 0 0 0] ------- [0:0 13:0 32 0] [4] 0 0
r 15.175426225 _0_ RTR  --- 14 cbr 512 [0 0 0 0] ------- [0:0 13:0 32 0] [4] 0 0
SFs 15.175426225 _0_ 14 [0 -> 13] 1(0) to 6 
s 15.175426225 _0_ RTR  --- 14 cbr 532 [0 0 0 0] ------- [0:0 13:0 32 6] [4] 0 0
r 15.177151055 _13_ RTR  --- 13 cbr 532 [13a d 9 800] ------- [0:0 13:0 30 13] [3] 3 0
r 15.177151055 _13_ AGT  --- 13 cbr 512 [13a d 9 800] ------- [0:0 13:0 30 13] [3] 3 0
r 15.179249388 _4_ RTR  --- 9 DSR 60 [13a 4 a 800] ------- [13:255 0:255 253 4] 4 [0 2] [1 2 4 0->13] [0 0 0 0->0]
f 15.179249388 _4_ RTR  --- 9 DSR 60 [13a 4 a 800] ------- [13:255 0:255 252 0] 4 [0 2] [1 2 4 0->13] [0 0 0 0->0]
r 15.185073923 _6_ RTR  --- 14 cbr 532 [13a 6 0 800] ------- [0:0 13:0 32 6] [4] 1 0
SFf 15.185073923 _6_ 14 [0 -> 13] 1 to 9
f 15.185073923 _6_ RTR  --- 14 cbr 532 [13a 6 0 800] ------- [0:0 13:0 31 9] [4] 1 0
r 15.187112905 _0_ RTR  --- 9 DSR 60 [13a 0 4 800] ------- [13:255 0:255 252 0] 4 [0 2] [1 2 4 0->13] [0 0 0 0->0]
r 15.193246571 _9_ RTR  --- 14 cbr 532 [13a 9 6 800] ------- [0:0 13:0 31 9] [4] 2 0
SFf 15.193246571 _9_ 14 [0 -> 13] 1 to 13
f 15.193246571 _9_ RTR  --- 14 cbr 532 [13a 9 6 800] ------- [0:0 13:0 30 13] [4] 2 0
r 15.199000807 _13_ RTR  --- 14 cbr 532 [13a d 9 800] ------- [0:0 13:0 30 13] [4] 3 0
r 15.199000807 _13_ AGT  --- 14 cbr 512 [13a d 9 800] ------- [0:0 13:0 30 13] [4] 3 0
r 15.201172395 _8_ RTR  --- 11 DSR 68 [13a 8 b 800] ------- [13:255 0:255 253 8] 5 [0 2] [1 2 5 0->13] [0 0 0 0->0]
f 15.201172395 _8_ RTR  --- 11 DSR 68 [13a 8 b 800] ------- [13:255 0:255 252 4] 5 [0 2] [1 2 5 0->13] [0 0 0 0->0]
s 15.201842782 _0_ AGT  --- 15 cbr 512 [0 0 0 0] ------- [0:0 13:0 32 0] [5] 0 0
r 15.201842782 _0_ RTR  --- 15 cbr 512 [0 0 0 0] ------- [0:0 13:0 32 0] [5] 0 0
SFs 15.201842782 _0_ 15 [0 -> 13] 1(0) to 6 
s 15.201842782 _0_ RTR  --- 15 cbr 532 [0 0 0 0] ------- [0:0 13:0 32 6] [5] 0 0
r 15.207332782 _6_ RTR  --- 15 cbr 532 [13a 6 0 800] ------- [0:0 13:0 32 6] [5] 1 0
SFf 15.207332782 _6_ 15 [0 -> 13] 1 to 9
f 15.207332782 _6_ RTR  --- 15 cbr 532 [13a 6 0 800] ------- [0:0 13:0 31 9] [5] 1 0
r 15.209740351 _4_ RTR  --- 11 DSR 68 [13a 4 8 800] ------- [13:255 0:255 252 4] 5 [0 2] [1 2 5 0->13] [0 0 0 0->0]
f 15.209740351 _4_ RTR  --- 11 DSR 68 [13a 4 8 800] ------- [13:255 0:255 251 0] 5 [0 2] [1 2 5 0->13] [0 0 0 0->0]
r 15.215623939 _9_ RTR  --- 15 cbr 532 [13a 9 6 800] ------- [0:0 13:0 31 9] [5] 2 0
SFf 15.215623939 _9_ 15 [0 -> 13] 1 to 13
f 15.215623939 _9_ RTR  --- 15 cbr 532 [13a 9 6 800] ------- [0:0 13:0 30 13] [5] 2 0
r 15.221898175 _13_ RTR  --- 15 cbr 532 [13a d 9 800] ------- [0:0 13:0 30 13] [5] 3 0
r 15.221898175 _13_ AGT  --- 15 cbr 512 [13a d 9 800] ------- [0:0 13:0 30 13] [5] 3 0
r 15.224525411 _0_ RTR  --- 11 DSR 68 [13a 0 4 800] ------- [13:255 0:255 251 0] 5 [0 2] [1 2 5 0->13] [0 0 0 0->0]
s 15.272670999 _0_ AGT  --- 16 cbr 512 [0 0 0 0] ------- [0:0 13:0 32 0] [6] 0 0
r 15.272670999 _0_ RTR  --- 16 cbr 512 [0 0 0 0] ------- [0:0 13:0 32 0] [6] 0 0
SFs 15.272670999 _0_ 16 [0 -> 13] 1(0) to 6 
s 15.272670999 _0_ RTR  --- 16 cbr 532 [0 0 0 0] ------- [0:0 13:0 32 6] [6] 0 0
r 15.278140999 _6_ RTR  --- 16 cbr 532 [13a 6 0 800] ------- [0:0 13:0 32 6] [6] 1 0
SFf 15.278140999 _6_ 16 [0 -> 13] 1 to 9
f 15.278140999 _6_ RTR  --- 16 cbr 532 [13a 6 0 800] ------- [0:0 13:0 31 9] [6] 1 0
r 15.284113999 _9_ RTR  --- 16 cbr 532 [13a 9 6 800] ------- [0:0 13:0 31 9] [6] 2 0
SFf 15.284113999 _9_ 16 [0 -> 13] 1 to 13
f 15.284113999 _9_ RTR  --- 16 cbr 532 [13a 9 6 800] ------- [0:0 13:0 30 13] [6] 2 0
r 15.290188235 _13_ RTR  --- 16 cbr 532 [13a d 9 800] ------- [0:0 13:0 30 13] [6] 3 0
r 15.290188235 _13_ AGT  --- 16 cbr 512 [13a d 9 800] ------- [0:0 13:0 30 13] [6] 3 0
s 15.332508600 _0_ AGT  --- 17 cbr 512 [0 0 0 0] ------- [0:0 13:0 32 0] [7] 0 0
r 15.332508600 _0_ RTR  --- 17 cbr 512 [0 0 0 0] ------- [0:0 13:0 32 0] [7] 0 0
SFs 15.332508600 _0_ 17 [0 -> 13] 1(0) to 6 
s 15.332508600 _0_ RTR  --- 17 cbr 532 [0 0 0 0] ------- [0:0 13:0 32 6] [7] 0 0
r 15.338138600 _6_ RTR  --- 17 cbr 532 [13a 6 0 800] ------- [0:0 13:0 32 6] [7] 1 0
SFf 15.338138600 _6_ 17 [0 -> 13] 1 to 9
f 15.338138600 _6_ RTR  --- 17 cbr 532 [13a 6 0 800] ------- [0:0 13:0 31 9] [7] 1 0
r 15.344211600 _9_ RTR  --- 17 cbr 532 [13a 9 6 800] ------- [0:0 13:0 31 9] [7] 2 0
SFf 15.344211600 _9_ 17 [0 -> 13] 1 to 13
f 15.344211600 _9_ RTR  --- 17 cbr 532 [13a 9 6 800] ------- [0:0 13:0 30 13] [7] 2 0
r 15.350505836 _13_ RTR  --- 17 cbr 532 [13a d 9 800] ------- [0:0 13:0 30 13] [7] 3 0
r 15.350505836 _13_ AGT  --- 17 cbr 512 [13a d 9 800] ------- [0:0 13:0 30 13] [7] 3 0
s 15.378080361 _0_ AGT  --- 18 cbr 512 [0 0 0 0] ------- [0:0 13:0 32 0] [8] 0 0
r 15.378080361 _0_ RTR  --- 18 cbr 512 [0 0 0 0] ------- [0:0 13:0 32 0] [8] 0 0
SFs 15.378080361 _0_ 18 [0 -> 13] 1(0) to 6 
s 15.378080361 _0_ RTR  --- 18 cbr 532 [0 0 0 0] ------- [0:0 13:0 32 6] [8] 0 0
r 15.383710361 _6_ RTR  --- 18 cbr 532 [13a 6 0 800] ------- [0:0 13:0 32 6] [8] 1 0
SFf 15.383710361 _6_ 18 [0 -> 13] 1 to 9
f 15.383710361 _6_ RTR  --- 18 cbr 532 [13a 6 0 800] ------- [0:0 13:0 31 9] [8] 1 0
r 15.389963361 _9_ RTR  --- 18 cbr 532 [13a 9 6 800] ------- [0:0 13:0 31 9] [8] 2 0
SFf 15.389963361 _9_ 18 [0 -> 13] 1 to 13
f 15.389963361 _9_ RTR  --- 18 cbr 532 [13a 9 6 800] ------- [0:0 13:0 30 13] [8] 2 0
r 15.395677597 _13_ RTR  --- 18 cbr 532 [13a d 9 800] ------- [0:0 13:0 30 13] [8] 3 0
r 15.395677597 _13_ AGT  --- 18 cbr 512 [13a d 9 800] ------- [0:0 13:0 30 13] [8] 3 0
s 15.407445264 _0_ AGT  --- 19 cbr 512 [0 0 0 0] ------- [0:0 13:0 32 0] [9] 0 0
r 15.407445264 _0_ RTR  --- 19 cbr 512 [0 0 0 0] ------- [0:0 13:0 32 0] [9] 0 0
SFs 15.407445264 _0_ 19 [0 -> 13] 1(0) to 6 
s 15.407445264 _0_ RTR  --- 19 cbr 532 [0 0 0 0] ------- [0:0 13:0 32 6] [9] 0 0
r 15.413375264 _6_ RTR  --- 19 cbr 532 [13a 6 0 800] ------- [0:0 13:0 32 6] [9] 1 0
SFf 15.413375264 _6_ 19 [0 -> 13] 1 to 9
f 15.413375264 _6_ RTR  --- 19 cbr 532 [13a 6 0 800] ------- [0:0 13:0 31 9] [9] 1 0
r 15.419308264 _9_ RTR  --- 19 cbr 532 [13a 9 6 800] ------- [0:0 13:0 31 9] [9] 2 0
SFf 15.419308264 _9_ 19 [0 -> 13] 1 to 13
f 15.419308264 _9_ RTR  --- 19 cbr 532 [13a 9 6 800] ------- [0:0 13:0 30 13] [9] 2 0
r 15.425042500 _13_ RTR  --- 19 cbr 532 [13a d 9 800] ------- [0:0 13:0 30 13] [9] 3 0
r 15.425042500 _13_ AGT  --- 19 cbr 512 [13a d 9 800] ------- [0:0 13:0 30 13] [9] 3 0
s 15.450154802 _0_ AGT  --- 20 cbr 512 [0 0 0 0] ------- [0:0 13:0 32 0] [10] 0 0
r 15.450154802 _0_ RTR  --- 20 cbr 512 [0 0 0 0] ------- [0:0 13:0 32 0] [10] 0 0
SFs 15.450154802 _0_ 20 [0 -> 13] 1(0) to 6 
s 15.450154802 _0_ RTR  --- 20 cbr 532 [0 0 0 0] ------- [0:0 13:0 32 6] [10] 0 0
r 15.455884802 _6_ RTR  --- 20 cbr 532 [13a 6 0 800] ------- [0:0 13:0 32 6] [10] 1 0
SFf 15.455884802 _6_ 20 [0 -> 13] 1 to 9
f 15.455884802 _6_ RTR  --- 20 cbr 532 [13a 6 0 800] ------- [0:0 13:0 31 9] [10] 1 0
r 15.461677802 _9_ RTR  --- 20 cbr 532 [13a 9 6 800] ------- [0:0 13:0 31 9] [10] 2 0
SFf 15.461677802 _9_ 20 [0 -> 13] 1 to 13
f 15.461677802 _9_ RTR  --- 20 cbr 532 [13a 9 6 800] ------- [0:0 13:0 30 13] [10] 2 0
r 15.467992038 _13_ RTR  --- 20 cbr 532 [13a d 9 800] ------- [0:0 13:0 30 13] [10] 3 0
r 15.467992038 _13_ AGT  --- 20 cbr 512 [13a d 9 800] ------- [0:0 13:0 30 13] [10] 3 0
s 15.516113145 _0_ AGT  --- 21 cbr 512 [0 0 0 0] ------- [0:0 13:0 32 0] [11] 0 0
r 15.516113145 _0_ RTR  --- 21 cbr 512 [0 0 0 0] ------- [0:0 13:0 32 0] [11] 0 0
SFs 15.516113145 _0_ 21 [0 -> 13] 1(0) to 6 
s 15.516113145 _0_ RTR  --- 21 cbr 532 [0 0 0 0] ------- [0:0 13:0 32 6] [11] 0 0
r 15.521863145 _6_ RTR  --- 21 cbr 532 [13a 6 0 800] ------- [0:0 13:0 32 6] [11] 1 0
SFf 15.521863145 _6_ 21 [0 -> 13] 1 to 9
f 15.521863145 _6_ RTR  --- 21 cbr 532 [13a 6 0 800] ------- [0:0 13:0 31 9] [11] 1 0
r 15.527696145 _9_ RTR  --- 21 cbr 532 [13a 9 6 800] ------- [0:0 13:0 31 9] [11] 2 0
SFf 15.527696145 _9_ 21 [0 -> 13] 1 to 13
f 15.527696145 _9_ RTR  --- 21 cbr 532 [13a 9 6 800] ------- [0:0 13:0 30 13] [11] 2 0
r 15.533710381 _13_ RTR  --- 21 cbr 532 [13a d 9 800] ------- [0:0 13:0 30 13] [11] 3 0
r 15.533710381 _13_ AGT  --- 21 cbr 512 [13a d 9 800] ------- [0:0 13:0 30 13] [11] 3 0
s 15.572282085 _0_ AGT  --- 22 cbr 512 [0 0 0 0] ------- [0:0 13:0 32 0] [12] 0 0
r 15.572282085 _0_ RTR  --- 22 cbr 512 [0 0 0 0] ------- [0:0 13:0 32 0] [12] 0 0
SFs 15.572282085 _0_ 22 [0 -> 13] 1(0) to 6 
s 15.572282085 _0_ RTR  --- 22 cbr 532 [0 0 0 0] ------- [0:0 13:0 32 6] [12] 0 0
r 15.578052085 _6_ RTR  --- 22 cbr 532 [13a 6 0 800] ------- [0:0 13:0 32 6] [12] 1 0
SFf 15.578052085 _6_ 22 [0 -> 13] 1 to 9
f 15.578052085 _6_ RTR  --- 22 cbr 532 [13a 6 0 800] ------- [0:0 13:0 31 9] [12] 1 0
r 15.584005085 _9_ RTR  --- 22 cbr 532 [13a 9 6 800] ------- [0:0 13:0 31 9] [12] 2 0
SFf 15.584005085 _9_ 22 [0 -> 13] 1 to 13