n -t * -s 0  -x 100 -y 100 -Z 0 -z 30  -v circle -c black
n -t * -s 1  -x 300 -y 100 -Z 0 -z 30  -v circle -c black
n -t * -s 2  -x 500 -y 100 -Z 0 -z 30  -v circle -c black
n -t * -s 3  -x 100 -y 200 -Z 0 -z 30  -v circle -c black
n -t * -s 4  -x 300 -y 200 -Z 0 -z 30  -v circle -c black
n -t * -s 5  -x 500 -y 200 -Z 0 -z 30  -v circle -c black
n -t * -s 6  -x 100 -y 300 -Z 0 -z 30  -v circle -c black
n -t * -s 7  -x 300 -y 300 -Z 0 -z 30  -v circle -c black
n -t * -s 8  -x 500 -y 300 -Z 0 -z 30  -v circle -c black
n -t * -s 9  -x 100 -y 400 -Z 0 -z 30  -v circle -c black
n -t * -s 10  -x 300 -y 400 -Z 0 -z 30  -v circle -c black
n -t * -s 11  -x 500 -y 400 -Z 0 -z 30  -v circle -c black
n -t * -s 12  -x 100 -y 500 -Z 0 -z 30  -v circle -c black
n -t * -s 13  -x 300 -y 500 -Z 0 -z 30  -v circle -c black
n -t * -s 14  -x 500 -y 500 -Z 0 -z 30  -v circle -c black
n -t * -s 15  -x 500 -y 0 -Z 0 -z 30  -v circle -c black
n -t * -s 16  -x 300 -y 0 -Z 0 -z 30  -v circle -c black
V -t * -v 1.0a5 -a 0
W -t * -x 500 -y 500
A -t * -n 1 -p 0 -o 0xffffffff -c 31 -a 1
A -t * -h 1 -m 2147483647 -s 0
+ -t 15.000000000 -s 0 -d -1 -p cbr -e 512 -c 2 -a 0 -i 0 -k AGT 
- -t 15.000000000 -s 0 -d -1 -p cbr -e 512 -c 2 -a 0 -i 0 -k AGT
h -t 15.000000000 -s 0 -d -1 -p cbr -e 512 -c 2 -a 0 -i 0 -k AGT
+ -t 15.004587291 -s 0 -d -1 -p DSR -e 32 -c 2 -a 0 -i 1 -k RTR 
- -t 15.004587291 -s 0 -d -1 -p DSR -e 32 -c 2 -a 0 -i 1 -k RTR
h -t 15.004587291 -s 0 -d -1 -p DSR -e 32 -c 2 -a 0 -i 1 -k RTR
+ -t 15.027844945 -s 0 -d -1 -p cbr -e 512 -c 2 -a 0 -i 2 -k AGT 
- -t 15.027844945 -s 0 -d -1 -p cbr -e 512 -c 2 -a 0 -i 2 -k AGT
h -t 15.027844945 -s 0 -d -1 -p cbr -e 512 -c 2 -a 0 -i 2 -k AGT
+ -t 15.046321976 -s 0 -d -1 -p DSR -e 32 -c 2 -a 0 -i 4 -k RTR 
- -t 15.046321976 -s 0 -d -1 -p DSR -e 32 -c 2 -a 0 -i 4 -k RTR
h -t 15.046321976 -s 0 -d -1 -p DSR -e 32 -c 2 -a 0 -i 4 -k RTR
+ -t 15.051916258 -s 6 -d -1 -p DSR -e 48 -c 2 -a 0 -i 4 -k RTR 
- -t 15.051916258 -s 6 -d -1 -p DSR -e 48 -c 2 -a 0 -i 4 -k RTR
h -t 15.051916258 -s 6 -d -1 -p DSR -e 48 -c 2 -a 0 -i 4 -k RTR
+ -t 15.052196082 -s 4 -d -1 -p DSR -e 48 -c 2 -a 0 -i 4 -k RTR 
- -t 15.052196082 -s 4 -d -1 -p DSR -e 48 -c 2 -a 0 -i 4 -k RTR
h -t 15.052196082 -s 4 -d -1 -p DSR -e 48 -c 2 -a 0 -i 4 -k RTR
+ -t 15.055258971 -s 16 -d -1 -p DSR -e 48 -c 2 -a 0 -i 4 -k RTR 
- -t 15.055258971 -s 16 -d -1 -p DSR -e 48 -c 2 -a 0 -i 4 -k RTR
h -t 15.055258971 -s 16 -d -1 -p DSR -e 48 -c 2 -a 0 -i 4 -k RTR
+ -t 15.055311576 -s 2 -d -1 -p DSR -e 68 -c 2 -a 0 -i 4 -k RTR 
- -t 15.055311576 -s 2 -d -1 -p DSR -e 68 -c 2 -a 0 -i 4 -k RTR
h -t 15.055311576 -s 2 -d -1 -p DSR -e 68 -c 2 -a 0 -i 4 -k RTR
+ -t 15.055622748 -s 3 -d -1 -p DSR -e 48 -c 2 -a 0 -i 4 -k RTR 
- -t 15.055622748 -s 3 -d -1 -p DSR -e 48 -c 2 -a 0 -i 4 -k RTR
h -t 15.055622748 -s 3 -d -1 -p DSR -e 48 -c 2 -a 0 -i 4 -k RTR
+ -t 15.056034174 -s 5 -d -1 -p DSR -e 68 -c 2 -a 0 -i 4 -k RTR 
- -t 15.056034174 -s 5 -d -1 -p DSR -e 68 -c 2 -a 0 -i 4 -k RTR
h -t 15.056034174 -s 5 -d -1 -p DSR -e 68 -c 2 -a 0 -i 4 -k RTR
+ -t 15.056413040 -s 8 -d -1 -p DSR -e 68 -c 2 -a 0 -i 4 -k RTR 
- -t 15.056413040 -s 8 -d -1 -p DSR -e 68 -c 2 -a 0 -i 4 -k RTR
h -t 15.056413040 -s 8 -d -1 -p DSR -e 68 -c 2 -a 0 -i 4 -k RTR
+ -t 15.056602401 -s 1 -d -1 -p DSR -e 48 -c 2 -a 0 -i 4 -k RTR 
- -t 15.056602401 -s 1 -d -1 -p DSR -e 48 -c 2 -a 0 -i 4 -k RTR
h -t 15.056602401 -s 1 -d -1 -p DSR -e 48 -c 2 -a 0 -i 4 -k RTR
+ -t 15.057443914 -s 12 -d -1 -p DSR -e 68 -c 2 -a 0 -i 4 -k RTR 
- -t 15.057443914 -s 12 -d -1 -p DSR -e 68 -c 2 -a 0 -i 4 -k RTR
h -t 15.057443914 -s 12 -d -1 -p DSR -e 68 -c 2 -a 0 -i 4 -k RTR
+ -t 15.058237101 -s 14 -d -1 -p DSR -e 92 -c 2 -a 0 -i 4 -k RTR 
- -t 15.058237101 -s 14 -d -1 -p DSR -e 92 -c 2 -a 0 -i 4 -k RTR
h -t 15.058237101 -s 14 -d -1 -p DSR -e 92 -c 2 -a 0 -i 4 -k RTR
+ -t 15.059410601 -s 9 -d -1 -p DSR -e 68 -c 2 -a 0 -i 4 -k RTR 
- -t 15.059410601 -s 9 -d -1 -p DSR -e 68 -c 2 -a 0 -i 4 -k RTR
h -t 15.059410601 -s 9 -d -1 -p DSR -e 68 -c 2 -a 0 -i 4 -k RTR
+ -t 15.060546801 -s 10 -d -1 -p DSR -e 68 -c 2 -a 0 -i 4 -k RTR 
- -t 15.060546801 -s 10 -d -1 -p DSR -e 68 -c 2 -a 0 -i 4 -k RTR
h -t 15.060546801 -s 10 -d -1 -p DSR -e 68 -c 2 -a 0 -i 4 -k RTR
+ -t 15.062902889 -s 7 -d -1 -p DSR -e 68 -c 2 -a 0 -i 4 -k RTR 
- -t 15.062902889 -s 7 -d -1 -p DSR -e 68 -c 2 -a 0 -i 4 -k RTR
h -t 15.062902889 -s 7 -d -1 -p DSR -e 68 -c 2 -a 0 -i 4 -k RTR
+ -t 15.064230700 -s 13 -d 12 -p DSR -e 60 -c 2 -a 0 -i 7 -k RTR 
- -t 15.064230700 -s 13 -d 12 -p DSR -e 60 -c 2 -a 0 -i 7 -k RTR
h -t 15.064230700 -s 13 -d 12 -p DSR -e 60 -c 2 -a 0 -i 7 -k RTR
+ -t 15.064639316 -s 15 -d -1 -p DSR -e 92 -c 2 -a 0 -i 4 -k RTR 
- -t 15.064639316 -s 15 -d -1 -p DSR -e 92 -c 2 -a 0 -i 4 -k RTR
h -t 15.064639316 -s 15 -d -1 -p DSR -e 92 -c 2 -a 0 -i 4 -k RTR
+ -t 15.066108980 -s 11 -d -1 -p DSR -e 92 -c 2 -a 0 -i 4 -k RTR 
- -t 15.066108980 -s 11 -d -1 -p DSR -e 92 -c 2 -a 0 -i 4 -k RTR
h -t 15.066108980 -s 11 -d -1 -p DSR -e 92 -c 2 -a 0 -i 4 -k RTR
+ -t 15.068492396 -s 12 -d 6 -p DSR -e 60 -c 2 -a 0 -i 7 -k RTR 
- -t 15.068492396 -s 12 -d 6 -p DSR -e 60 -c 2 -a 0 -i 7 -k RTR
h -t 15.068492396 -s 12 -d 6 -p DSR -e 60 -c 2 -a 0 -i 7 -k RTR
+ -t 15.070102504 -s 13 -d 9 -p DSR -e 60 -c 2 -a 0 -i 6 -k RTR 
- -t 15.070102504 -s 13 -d 9 -p DSR -e 60 -c 2 -a 0 -i 6 -k RTR
h -t 15.070102504 -s 13 -d 9 -p DSR -e 60 -c 2 -a 0 -i 6 -k RTR
+ -t 15.073723925 -s 13 -d 10 -p DSR -e 60 -c 2 -a 0 -i 9 -k RTR 
- -t 15.073723925 -s 13 -d 10 -p DSR -e 60 -c 2 -a 0 -i 9 -k RTR
h -t 15.073723925 -s 13 -d 10 -p DSR -e 60 -c 2 -a 0 -i 9 -k RTR
+ -t 15.074249282 -s 13 -d 7 -p DSR -e 60 -c 2 -a 0 -i 8 -k RTR 
- -t 15.074249282 -s 13 -d 7 -p DSR -e 60 -c 2 -a 0 -i 8 -k RTR
h -t 15.074249282 -s 13 -d 7 -p DSR -e 60 -c 2 -a 0 -i 8 -k RTR
+ -t 15.075423045 -s 9 -d 6 -p DSR -e 60 -c 2 -a 0 -i 6 -k RTR 
- -t 15.075423045 -s 9 -d 6 -p DSR -e 60 -c 2 -a 0 -i 6 -k RTR
h -t 15.075423045 -s 9 -d 6 -p DSR -e 60 -c 2 -a 0 -i 6 -k RTR
+ -t 15.076813623 -s 13 -d 11 -p DSR -e 68 -c 2 -a 0 -i 11 -k RTR 
- -t 15.076813623 -s 13 -d 11 -p DSR -e 68 -c 2 -a 0 -i 11 -k RTR
h -t 15.076813623 -s 13 -d 11 -p DSR -e 68 -c 2 -a 0 -i 11 -k RTR
+ -t 15.077380045 -s 6 -d 0 -p DSR -e 60 -c 2 -a 0 -i 6 -k RTR 
- -t 15.077380045 -s 6 -d 0 -p DSR -e 60 -c 2 -a 0 -i 6 -k RTR
h -t 15.077380045 -s 6 -d 0 -p DSR -e 60 -c 2 -a 0 -i 6 -k RTR
+ -t 15.079638045 -s 0 -d 6 -p cbr -e 556 -c 2 -a 0 -i 0 -k RTR 
- -t 15.079638045 -s 0 -d 6 -p cbr -e 556 -c 2 -a 0 -i 0 -k RTR
h -t 15.079638045 -s 0 -d 6 -p cbr -e 556 -c 2 -a 0 -i 0 -k RTR
+ -t 15.080554273 -s 13 -d 14 -p DSR -e 68 -c 2 -a 0 -i 10 -k RTR 
- -t 15.080554273 -s 13 -d 14 -p DSR -e 68 -c 2 -a 0 -i 10 -k RTR
h -t 15.080554273 -s 13 -d 14 -p DSR -e 68 -c 2 -a 0 -i 10 -k RTR
+ -t 15.086144045 -s 6 -d 9 -p cbr -e 556 -c 2 -a 0 -i 0 -k RTR 
- -t 15.086144045 -s 6 -d 9 -p cbr -e 556 -c 2 -a 0 -i 0 -k RTR
h -t 15.086144045 -s 6 -d 9 -p cbr -e 556 -c 2 -a 0 -i 0 -k RTR
+ -t 15.086218108 -s 0 -d -1 -p cbr -e 512 -c 2 -a 0 -i 12 -k AGT 
- -t 15.086218108 -s 0 -d -1 -p cbr -e 512 -c 2 -a 0 -i 12 -k AGT
h -t 15.086218108 -s 0 -d -1 -p cbr -e 512 -c 2 -a 0 -i 12 -k AGT
+ -t 15.086218108 -s 0 -d 6 -p cbr -e 556 -c 2 -a 0 -i 12 -k RTR 
- -t 15.086218108 -s 0 -d 6 -p cbr -e 556 -c 2 -a 0 -i 12 -k RTR
h -t 15.086218108 -s 0 -d 6 -p cbr -e 556 -c 2 -a 0 -i 12 -k RTR
+ -t 15.092070711 -s 6 -d 9 -p cbr -e 556 -c 2 -a 0 -i 12 -k RTR 
- -t 15.092070711 -s 6 -d 9 -p cbr -e 556 -c 2 -a 0 -i 12 -k RTR
h -t 15.092070711 -s 6 -d 9 -p cbr -e 556 -c 2 -a 0 -i 12 -k RTR
+ -t 15.094473654 -s 7 -d 4 -p DSR -e 60 -c 2 -a 0 -i 8 -k RTR 
- -t 15.094473654 -s 7 -d 4 -p DSR -e 60 -c 2 -a 0 -i 8 -k RTR
h -t 15.094473654 -s 7 -d 4 -p DSR -e 60 -c 2 -a 0 -i 8 -k RTR
+ -t 15.100508930 -s 9 -d 13 -p cbr -e 556 -c 2 -a 0 -i 0 -k RTR 
- -t 15.100508930 -s 9 -d 13 -p cbr -e 556 -c 2 -a 0 -i 0 -k RTR
h -t 15.100508930 -s 9 -d 13 -p cbr -e 556 -c 2 -a 0 -i 0 -k RTR
+ -t 15.102766676 -s 4 -d 0 -p DSR -e 60 -c 2 -a 0 -i 8 -k RTR 
- -t 15.102766676 -s 4 -d 0 -p DSR -e 60 -c 2 -a 0 -i 8 -k RTR
h -t 15.102766676 -s 4 -d 0 -p DSR -e 60 -c 2 -a 0 -i 8 -k RTR
r -t 15.109619990 -s 13 -d 13 -p cbr -e 512 -c 2 -a 0 -i 0 -k AGT
+ -t 15.109638045 -s 0 -d 6 -p cbr -e 556 -c 2 -a 0 -i 2 -k RTR 
- -t 15.109638045 -s 0 -d 6 -p cbr -e 556 -c 2 -a 0 -i 2 -k RTR
h -t 15.109638045 -s 0 -d 6 -p cbr -e 556 -c 2 -a 0 -i 2 -k RTR
+ -t 15.111741990 -s 14 -d 8 -p DSR -e 68 -c 2 -a 0 -i 10 -k RTR 
- -t 15.111741990 -s 14 -d 8 -p DSR -e 68 -c 2 -a 0 -i 10 -k RTR
h -t 15.111741990 -s 14 -d 8 -p DSR -e 68 -c 2 -a 0 -i 10 -k RTR
+ -t 15.113202853 -s 0 -d -1 -p cbr -e 512 -c 2 -a 0 -i 13 -k AGT 
- -t 15.113202853 -s 0 -d -1 -p cbr -e 512 -c 2 -a 0 -i 13 -k AGT
h -t 15.113202853 -s 0 -d -1 -p cbr -e 512 -c 2 -a 0 -i 13 -k AGT
+ -t 15.113202853 -s 0 -d 6 -p cbr -e 532 -c 2 -a 0 -i 13 -k RTR 
- -t 15.113202853 -s 0 -d 6 -p cbr -e 532 -c 2 -a 0 -i 13 -k RTR
h -t 15.113202853 -s 0 -d 6 -p cbr -e 532 -c 2 -a 0 -i 13 -k RTR
+ -t 15.114783990 -s 8 -d 4 -p DSR -e 68 -c 2 -a 0 -i 10 -k RTR 
- -t 15.114783990 -s 8 -d 4 -p DSR -e 68 -c 2 -a 0 -i 10 -k RTR
h -t 15.114783990 -s 8 -d 4 -p DSR -e 68 -c 2 -a 0 -i 10 -k RTR
+ -t 15.116806226 -s 4 -d 0 -p DSR -e 68 -c 2 -a 0 -i 10 -k RTR 
- -t 15.116806226 -s 4 -d 0 -p DSR -e 68 -c 2 -a 0 -i 10 -k RTR
h -t 15.116806226 -s 4 -d 0 -p DSR -e 68 -c 2 -a 0 -i 10 -k RTR
+ -t 15.122981814 -s 9 -d 13 -p cbr -e 556 -c 2 -a 0 -i 12 -k RTR 
- -t 15.122981814 -s 9 -d 13 -p cbr -e 556 -c 2 -a 0 -i 12 -k RTR
h -t 15.122981814 -s 9 -d 13 -p cbr -e 556 -c 2 -a 0 -i 12 -k RTR
r -t 15.128928050 -s 13 -d 13 -p cbr -e 512 -c 2 -a 0 -i 12 -k AGT
+ -t 15.130966717 -s 6 -d 0 -p DSR -e 60 -c 2 -a 0 -i 7 -k RTR 
- -t 15.130966717 -s 6 -d 0 -p DSR -e 60 -c 2 -a 0 -i 7 -k RTR
h -t 15.130966717 -s 6 -d 0 -p DSR -e 60 -c 2 -a 0 -i 7 -k RTR
+ -t 15.136963384 -s 6 -d 9 -p cbr -e 556 -c 2 -a 0 -i 2 -k RTR 
- -t 15.136963384 -s 6 -d 9 -p cbr -e 556 -c 2 -a 0 -i 2 -k RTR
h -t 15.136963384 -s 6 -d 9 -p cbr -e 556 -c 2 -a 0 -i 2 -k RTR
+ -t 15.144955384 -s 6 -d 9 -p cbr -e 532 -c 2 -a 0 -i 13 -k RTR 
- -t 15.144955384 -s 6 -d 9 -p cbr -e 532 -c 2 -a 0 -i 13 -k RTR
h -t 15.144955384 -s 6 -d 9 -p cbr -e 532 -c 2 -a 0 -i 13 -k RTR
+ -t 15.150900384 -s 9 -d 13 -p cbr -e 556 -c 2 -a 0 -i 2 -k RTR 
- -t 15.150900384 -s 9 -d 13 -p cbr -e 556 -c 2 -a 0 -i 2 -k RTR
h -t 15.150900384 -s 9 -d 13 -p cbr -e 556 -c 2 -a 0 -i 2 -k RTR
+ -t 15.156613717 -s 9 -d 13 -p cbr -e 532 -c 2 -a 0 -i 13 -k RTR 
- -t 15.156613717 -s 9 -d 13 -p cbr -e 532 -c 2 -a 0 -i 13 -k RTR
h -t 15.156613717 -s 9 -d 13 -p cbr -e 532 -c 2 -a 0 -i 13 -k RTR
r -t 15.162539953 -s 13 -d 13 -p cbr -e 512 -c 2 -a 0 -i 2 -k AGT
+ -t 15.164722189 -s 11 -d 8 -p DSR -e 68 -c 2 -a 0 -i 11 -k RTR 
- -t 15.164722189 -s 11 -d 8 -p DSR -e 68 -c 2 -a 0 -i 11 -k RTR
h -t 15.164722189 -s 11 -d 8 -p DSR -e 68 -c 2 -a 0 -i 11 -k RTR
+ -t 15.166759935 -s 10 -d 4 -p DSR -e 60 -c 2 -a 0 -i 9 -k RTR 
- -t 15.166759935 -s 10 -d 4 -p DSR -e 60 -c 2 -a 0 -i 9 -k RTR
h -t 15.166759935 -s 10 -d 4 -p DSR -e 60 -c 2 -a 0 -i 9 -k RTR
+ -t 15.175426225 -s 0 -d -1 -p cbr -e 512 -c 2 -a 0 -i 14 -k AGT 
- -t 15.175426225 -s 0 -d -1 -p cbr -e 512 -c 2 -a 0 -i 14 -k AGT
h -t 15.175426225 -s 0 -d -1 -p cbr -e 512 -c 2 -a 0 -i 14 -k AGT
+ -t 15.175426225 -s 0 -d 6 -p cbr -e 532 -c 2 -a 0 -i 14 -k RTR 
- -t 15.175426225 -s 0 -d 6 -p cbr -e 532 -c 2 -a 0 -i 14 -k RTR
h -t 15.175426225 -s 0 -d 6 -p cbr -e 532 -c 2 -a 0 -i 14 -k RTR
r -t 15.177151055 -s 13 -d 13 -p cbr -e 512 -c 2 -a 0 -i 13 -k AGT
+ -t 15.179249388 -s 4 -d 0 -p DSR -e 60 -c 2 -a 0 -i 9 -k RTR 
- -t 15.179249388 -s 4 -d 0 -p DSR -e 60 -c 2 -a 0 -i 9 -k RTR
h -t 15.179249388 -s 4 -d 0 -p DSR -e 60 -c 2 -a 0 -i 9 -k RTR
+ -t 15.185073923 -s 6 -d 9 -p cbr -e 532 -c 2 -a 0 -i 14 -k RTR 
- -t 15.185073923 -s 6 -d 9 -p cbr -e 532 -c 2 -a 0 -i 14 -k RTR
h -t 15.185073923 -s 6 -d 9 -p cbr -e 532 -c 2 -a 0 -i 14 -k RTR
+ -t 15.193246571 -s 9 -d 13 -p cbr -e 532 -c 2 -a 0 -i 14 -k RTR 
- -t 15.193246571 -s 9 -d 13 -p cbr -e 532 -c 2 -a 0 -i 14 -k RTR
h -t 15.193246571 -s 9 -d 13 -p cbr -e 532 -c 2 -a 0 -i 14 -k RTR
r -t 15.199000807 -s 13 -d 13 -p cbr -e 512 -c 2 -a 0 -i 14 -k AGT
+ -t 15.201172395 -s 8 -d 4 -p DSR -e 68 -c 2 -a 0 -i 11 -k RTR 
- -t 15.201172395 -s 8 -d 4 -p DSR -e 68 -c 2 -a 0 -i 11 -k RTR
h -t 15.201172395 -s 8 -d 4 -p DSR -e 68 -c 2 -a 0 -i 11 -k RTR
+ -t 15.201842782 -s 0 -d -1 -p cbr -e 512 -c 2 -a 0 -i 15 -k AGT 
- -t 15.201842782 -s 0 -d -1 -p cbr -e 512 -c 2 -a 0 -i 15 -k AGT
h -t 15.201842782 -s 0 -d -1 -p cbr -e 512 -c 2 -a 0 -i 15 -k AGT
+ -t 15.201842782 -s 0 -d 6 -p cbr -e 532 -c 2 -a 0 -i 15 -k RTR 
- -t 15.201842782 -s 0 -d 6 -p cbr -e 532 -c 2 -a 0 -i 15 -k RTR
h -t 15.201842782 -s 0 -d 6 -p cbr -e 532 -c 2 -a 0 -i 15 -k RTR
+ -t 15.207332782 -s 6 -d 9 -p cbr -e 532 -c 2 -a 0 -i 15 -k RTR 
- -t 15.207332782 -s 6 -d 9 -p cbr -e 532 -c 2 -a 0 -i 15 -k RTR
h -t 15.207332782 -s 6 -d 9 -p cbr -e 532 -c 2 -a 0 -i 15 -k RTR
+ -t 15.209740351 -s 4 -d 0 -p DSR -e 68 -c 2 -a 0 -i 11 -k RTR 
- -t 15.209740351 -s 4 -d 0 -p DSR -e 68 -c 2 -a 0 -i 11 -k RTR
h -t 15.209740351 -s 4 -d 0 -p DSR -e 68 -c 2 -a 0 -i 11 -k RTR
+ -t 15.215623939 -s 9 -d 13 -p cbr -e 532 -c 2 -a 0 -i 15 -k RTR 
- -t 15.215623939 -s 9 -d 13 -p cbr -e 532 -c 2 -a 0 -i 15 -k RTR
h -t 15.215623939 -s 9 -d 13 -p cbr -e 532 -c 2 -a 0 -i 15 -k RTR
r -t 15.221898175 -s 13 -d 13 -p cbr -e 512 -c 2 -a 0 -i 15 -k AGT
+ -t 15.272670999 -s 0 -d -1 -p cbr -e 512 -c 2 -a 0 -i 16 -k AGT 
- -t 15.272670999 -s 0 -d -1 -p cbr -e 512 -c 2 -a 0 -i 16 -k AGT
h -t 15.272670999 -s 0 -d -1 -p cbr -e 512 -c 2 -a 0 -i 16 -k AGT
+ -t 15.272670999 -s 0 -d 6 -p cbr -e 532 -c 2 -a 0 -i 16 -k RTR 
- -t 15.272670999 -s 0 -d 6 -p cbr -e 532 -c 2 -a 0 -i 16 -k RTR
h -t 15.272670999 -s 0 -d 6 -p cbr -e 532 -c 2 -a 0 -i 16 -k RTR
+ -t 15.278140999 -s 6 -d 9 -p cbr -e 532 -c 2 -a 0 -i 16 -k RTR 
- -t 15.278140999 -s 6 -d 9 -p cbr -e 532 -c 2 -a 0 -i 16 -k RTR
h -t 15.278140999 -s 6 -d 9 -p cbr -e 532 -c 2 -a 0 -i 16 -k RTR
+ -t 15.284113999 -s 9 -d 13 -p cbr -e 532 -c 2 -a 0 -i 16 -k RTR 
- -t 15.284113999 -s 9 -d 13 -p cbr -e 532 -c 2 -a 0 -i 16 -k RTR
h -t 15.284113999 -s 9 -d 13 -p cbr -e 532 -c 2 -a 0 -i 16 -k RTR
r -t 15.290188235 -s 13 -d 13 -p cbr -e 512 -c 2 -a 0 -i 16 -k AGT
+ -t 15.332508600 -s 0 -d -1 -p cbr -e 512 -c 2 -a 0 -i 17 -k AGT 
- -t 15.332508600 -s 0 -d -1 -p cbr -e 512 -c 2 -a 0 -i 17 -k AGT
h -t 15.332508600 -s 0 -d -1 -p cbr -e 512 -c 2 -a 0 -i 17 -k AGT
+ -t 15.332508600 -s 0 -d 6 -p cbr -e 532 -c 2 -a 0 -i 17 -k RTR 
- -t 15.332508600 -s 0 -d 6 -p cbr -e 532 -c 2 -a 0 -i 17 -k RTR
h -t 15.332508600 -s 0 -d 6 -p cbr -e 532 -c 2 -a 0 -i 17 -k RTR
+ -t 15.338138600 -s 6 -d 9 -p cbr -e 532 -c 2 -a 0 -i 17 -k RTR 
- -t 15.338138600 -s 6 -d 9 -p cbr -e 532 -c 2 -a 0 -i 17 -k RTR
h -t 15.338138600 -s 6 -d 9 -p cbr -e 532 -c 2 -a 0 -i 17 -k RTR
+ -t 15.344211600 -s 9 -d 13 -p cbr -e 532 -c 2 -a 0 -i 17 -k RTR 
- -t 15.344211600 -s 9 -d 13 -p cbr -e 532 -c 2 -a 0 -i 17 -k RTR
h -t 15.344211600 -s 9 -d 13 -p cbr -e 532 -c 2 -a 0 -i 17 -k RTR
r -t 15.350505836 -s 13 -d 13 -p cbr -e 512 -c 2 -a 0 -i 17 -k AGT
+ -t 15.378080361 -s 0 -d -1 -p cbr -e 512 -c 2 -a 0 -i 18 -k AGT 
- -t 15.378080361 -s 0 -d -1 -p cbr -e 512 -c 2 -a 0 -i 18 -k AGT
h -t 15.378080361 -s 0 -d -1 -p cbr -e 512 -c 2 -a 0 -i 18 -k AGT
+ -t 15.378080361 -s 0 -d 6 -p cbr -e 532 -c 2 -a 0 -i 18 -k RTR 
- -t 15.378080361 -s 0 -d 6 -p cbr -e 532 -c 2 -a 0 -i 18 -k RTR
h -t 15.378080361 -s 0 -d 6 -p cbr -e 532 -c 2 -a 0 -i 18 -k RTR
+ -t 15.383710361 -s 6 -d 9 -p cbr -e 532 -c 2 -a 0 -i 18 -k RTR 
- -t 15.383710361 -s 6 -d 9 -p cbr -e 532 -c 2 -a 0 -i 18 -k RTR
h -t 15.383710361 -s 6 -d 9 -p cbr -e 532 -c 2 -a 0 -i 18 -k RTR
+ -t 15.389963361 -s 9 -d 13 -p cbr -e 532 -c 2 -a 0 -i 18 -k RTR 
- -t 15.389963361 -s 9 -d 13 -p cbr -e 532 -c 2 -a 0 -i 18 -k RTR
h -t 15.389963361 -s 9 -d 13 -p cbr -e 532 -c 2 -a 0 -i 18 -k RTR
r -t 15.395677597 -s 13 -d 13 -p cbr -e 512 -c 2 -a 0 -i 18 -k AGT
+ -t 15.407445264 -s 0 -d -1 -p cbr -e 512 -c 2 -a 0 -i 19 -k AGT 
- -t 15.407445264 -s 0 -d -1 -p cbr -e 512 -c 2 -a 0 -i 19 -k AGT
h -t 15.407445264 -s 0 -d -1 -p cbr -e 512 -c 2 -a 0 -i 19 -k AGT
+ -t 15.407445264 -s 0 -d 6 -p cbr -e 532 -c 2 -a 0 -i 19 -k RTR 
- -t 15.407445264 -s 0 -d 6 -p cbr -e 532 -c 2 -a 0 -i 19 -k RTR
h -t 15.407445264 -s 0 -d 6 -p cbr -e 532 -c 2 -a 0 -i 19 -k RTR
+ -t 15.413375264 -s 6 -d 9 -p cbr -e 532 -c 2 -a 0 -i 19 -k RTR 
- -t 15.413375264 -s 6 -d 9 -p cbr -e 532 -c 2 -a 0 -i 19 -k RTR
h -t 15.413375264 -s 6 -d 9 -p cbr -e 532 -c 2 -a 0 -i 19 -k RTR
+ -t 15.419308264 -s 9 -d 13 -p cbr -e 532 -c 2 -a 0 -i 19 -k RTR 
- -t 15.419308264 -s 9 -d 13 -p cbr -e 532 -c 2 -a 0 -i 19 -k RTR
h -t 15.419308264 -s 9 -d 13 -p cbr -e 532 -c 2 -a 0 -i 19 -k RTR
r -t 15.425042500 -s 13 -d 13 -p cbr -e 512 -c 2 -a 0 -i 19 -k AGT
+ -t 15.450154802 -s 0 -d -1 -p cbr -e 512 -c 2 -a 0 -i 20 -k AGT 
- -t 15.450154802 -s 0 -d -1 -p cbr -e 512 -c 2 -a 0 -i 20 -k AGT
h -t 15.450154802 -s 0 -d -1 -p cbr -e 512 -c 2 -a 0 -i 20 -k AGT
+ -t 15.450154802 -s 0 -d 6 -p cbr -e 532 -c 2 -a 0 -i 20 -k RTR 
- -t 15.450154802 -s 0 -d 6 -p cbr -e 532 -c 2 -a 0 -i 20 -k RTR
h -t 15.450154802 -s 0 -d 6 -p cbr -e 532 -c 2 -a 0 -i 20 -k RTR
+ -t 15.455884802 -s 6 -d 9 -p cbr -e 532 -c 2 -a 0 -i 20 -k RTR 
- -t 15.455884802 -s 6 -d 9 -p cbr -e 532 -c 2 -a 0 -i 20 -k RTR
h -t 15.455884802 -s 6 -d 9 -p cbr -e 532 -c 2 -a 0 -i 20 -k RTR
+ -t 15.461677802 -s 9 -d 13 -p cbr -e 532 -c 2 -a 0 -i 20 -k RTR 
- -t 15.461677802 -s 9 -d 13 -p cbr -e 532 -c 2 -a 0 -i 20 -k RTR
h -t 15.461677802 -s 9 -d 13 -p cbr -e 532 -c 2 -a 0 -i 20 -k RTR
r -t 15.467992038 -s 13 -d 13 -p cbr -e 512 -c 2 -a 0 -i 20 -k AGT
+ -t 15.516113145 -s 0 -d -1 -p cbr -e 512 -c 2 -a 0 -i 21 -k AGT 
- -t 15.516113145 -s 0 -d -1 -p cbr -e 512 -c 2 -a 0 -i 21 -k AGT
h -t 15.516113145 -s 0 -d -1 -p cbr -e 512 -c 2 -a 0 -i 21 -k AGT
+ -t 15.516113145 -s 0 -d 6 -p cbr -e 532 -c 2 -a 0 -i 21 -k RTR 
- -t 15.516113145 -s 0 -d 6 -p cbr -e 532 -c 2 -a 0 -i 21 -k RTR
h -t 15.516113145 -s 0 -d 6 -p cbr -e 532 -c 2 -a 0 -i 21 -k RTR
+ -t 15.521863145 -s 6 -d 9 -p cbr -e 532 -c 2 -a 0 -i 21 -k RTR 
- -t 15.521863145 -s 6 -d 9 -p cbr -e 532 -c 2 -a 0 -i 21 -k RTR
h -t 15.521863145 -s 6 -d 9 -p cbr -e 532 -c 2 -a 0 -i 21 -k RTR
+ -t 15.527696145 -s 9 -d 13 -p cbr -e 532 -c 2 -a 0 -i 21 -k RTR 
- -t 15.527696145 -s 9 -d 13 -p cbr -e 532 -c 2 -a 0 -i 21 -k RTR
h -t 15.527696145 -s 9 -d 13 -p cbr -e 532 -c 2 -a 0 -i 21 -k RTR
r -t 15.533710381 -s 13 -d 13 -p cbr -e 512 -c 2 -a 0 -i 21 -k AGT
+ -t 15.572282085 -s 0 -d -1 -p cbr -e 512 -c 2 -a 0 -i 22 -k AGT 
- -t 15.572282085 -s 0 -d -1 -p cbr -e 512 -c 2 -a 0 -i 22 -k AGT
h -t 15.572282085 -s 0 -d -1 -p cbr -e 512 -c 2 -a 0 -i 22 -k AGT
+ -t 15.572282085 -s 0 -d 6 -p cbr -e 532 -c 2 -a 0 -i 22 -k RTR 
- -t 15.572282085 -s 0 -d 6 -p cbr -e 532 -c 2 -a 0 -i 22 -k RTR
h -t 15.572282085 -s 0 -d 6 -p cbr -e 532 -c 2 -a 0 -i 22 -k RTR
+ -t 15.578052085 -s 6 -d 9 -p cbr -e 532 -c 2 -a 0 -i 22 -k RTR 
- -t 15.578052085 -s 6 -d 9 -p cbr -e 532 -c 2 -a 0 -i 22 -k RTR
h -t 15.578052085 -s 6 -d 9 -p cbr -e 532 -c 2 -a 0 -i 22 -k RTR
+ -t 15.584005085 -s 9 -d 13 -p cbr -e 532 -c 2 -a 0 -i 22 -k RTR 
- -t 15.584005085 -s 9 -d 13 -p cbr -e 532 -c 2 -a 0 -i 22 -k RTR
h -t 15.584005085 -s 9 -d 13 -p cbr -e 532 -c 2 -a 0 -i 22 -k RTR
r -t 15.589799321 -s 13 -d 13 -p cbr -e 512 -c 2 -a 0 -i 22 -k AGT
+ -t 15.641641631 -s 0 -d -1 -p cbr -e 512 -c 2 -a 0 -i 23 -k AGT 
- -t 15.641641631 -s 0 -d -1 -p cbr -e 512 -c 2 -a 0 -i 23 -k AGT
h -t 15.641641631 -s 0 -d -1 -p cbr -e 512 -c 2 -a 0 -i 23 -k AGT
+ -t 15.641641631 -s 0 -d 6 -p cbr -e 532 -c 2 -a 0 -i 23 -k RTR 
- -t 15.641641631 -s 0 -d 6 -p cbr -e 532 -c 2 -a 0 -i 23 -k RTR
h -t 15.641641631 -s 0 -d 6 -p cbr -e 532 -c 2 -a 0 -i 23 -k RTR
+ -t 15.647691631 -s 6 -d 9 -p cbr -e 532 -c 2 -a 0 -i 23 -k RTR 
- -t 15.647691631 -s 6 -d 9 -p cbr -e 532 -c 2 -a 0 -i 23 -k RTR
h -t 15.647691631 -s 6 -d 9 -p cbr -e 532 -c 2 -a 0 -i 23 -k RTR
+ -t 15.653564631 -s 9 -d 13 -p cbr -e 532 -c 2 -a 0 -i 23 -k RTR 
- -t 15.653564631 -s 9 -d 13 -p cbr -e 532 -c 2 -a 0 -i 23 -k RTR
h -t 15.653564631 -s 9 -d 13 -p cbr -e 532 -c 2 -a 0 -i 23 -k RTR
r -t 15.659858867 -s 13 -d 13 -p cbr -e 512 -c 2 -a 0 -i 23 -k AGT
+ -t 15.675771931 -s 0 -d -1 -p cbr -e 512 -c 2 -a 0 -i 24 -k AGT 
- -t 15.675771931 -s 0 -d -1 -p cbr -e 512 -c 2 -a 0 -i 24 -k AGT
h -t 15.675771931 -s 0 -d -1 -p cbr -e 512 -c 2 -a 0 -i 24 -k AGT
+ -t 15.675771931 -s 0 -d 6 -p cbr -e 532 -c 2 -a 0 -i 24 -k RTR 
- -t 15.675771931 -s 0 -d 6 -p cbr -e 532 -c 2 -a 0 -i 24 -k RTR
h -t 15.675771931 -s 0 -d 6 -p cbr -e 532 -c 2 -a 0 -i 24 -k RTR
+ -t 15.681721931 -s 6 -d 9 -p cbr -e 532 -c 2 -a 0 -i 24 -k RTR 
- -t 15.681721931 -s 6 -d 9 -p cbr -e 532 -c 2 -a 0 -i 24 -k RTR
h -t 15.681721931 -s 6 -d 9 -p cbr -e 532 -c 2 -a 0 -i 24 -k RTR
+ -t 15.688014931 -s 9 -d 13 -p cbr -e 532 -c 2 -a 0 -i 24 -k RTR 
- -t 15.688014931 -s 9 -d 13 -p cbr -e 532 -c 2 -a 0 -i 24 -k RTR
h -t 15.688014931 -s 9 -d 13 -p cbr -e 532 -c 2 -a 0 -i 24 -k RTR
r -t 15.694189167 -s 13 -d 13 -p cbr -e 512 -c 2 -a 0 -i 24 -k AGT
+ -t 15.730238948 -s 0 -d -1 -p cbr -e 512 -c 2 -a 0 -i 25 -k AGT 
- -t 15.730238948 -s 0 -d -1 -p cbr -e 512 -c 2 -a 0 -i 25 -k AGT
h -t 15.730238948 -s 0 -d -1 -p cbr -e 512 -c 2 -a 0 -i 25 -k AGT
+ -t 15.730238948 -s 0 -d 6 -p cbr -e 532 -c 2 -a 0 -i 25 -k RTR 
- -t 15.730238948 -s 0 -d 6 -p cbr -e 532 -c 2 -a 0 -i 25 -k RTR
h -t 15.730238948 -s 0 -d 6 -p cbr -e 532 -c 2 -a 0 -i 25 -k RTR
+ -t 15.736248948 -s 6 -d 9 -p cbr -e 532 -c 2 -a 0 -i 25 -k RTR 
- -t 15.736248948 -s 6 -d 9 -p cbr -e 532 -c 2 -a 0 -i 25 -k RTR
h -t 15.736248948 -s 6 -d 9 -p cbr -e 532 -c 2 -a 0 -i 25 -k RTR
+ -t 15.742281948 -s 9 -d 13 -p cbr -e 532 -c 2 -a 0 -i 25 -k RTR 
- -t 15.742281948 -s 9 -d 13 -p cbr -e 532 -c 2 -a 0 -i 25 -k RTR
h -t 15.742281948 -s 9 -d 13 -p cbr -e 532 -c 2 -a 0 -i 25 -k RTR
r -t 15.748176184 -s 13 -d 13 -p cbr -e 512 -c 2 -a 0 -i 25 -k AGT
+ -t 15.770660016 -s 0 -d -1 -p cbr -e 512 -c 2 -a 0 -i 26 -k AGT 
- -t 15.770660016 -s 0 -d -1 -p cbr -e 512 -c 2 -a 0 -i 26 -k AGT
h -t 15.770660016 -s 0 -d -1 -p cbr -e 512 -c 2 -a 0 -i 26 -k AGT
+ -t 15.770660016 -s 0 -d 6 -p cbr -e 532 -c 2 -a 0 -i 26 -k RTR 
- -t 15.770660016 -s 0 -d 6 -p cbr -e 532 -c 2 -a 0 -i 26 -k RTR
h -t 15.770660016 -s 0 -d 6 -p cbr -e 532 -c 2 -a 0 -i 26 -k RTR
+ -t 15.776130016 -s 6 -d 9 -p cbr -e 532 -c 2 -a 0 -i 26 -k RTR 
- -t 15.776130016 -s 6 -d 9 -p cbr -e 532 -c 2 -a 0 -i 26 -k RTR
h -t 15.776130016 -s 6 -d 9 -p cbr -e 532 -c 2 -a 0 -i 26 -k RTR
+ -t 15.782283016 -s 9 -d 13 -p cbr -e 532 -c 2 -a 0 -i 26 -k RTR 
- -t 15.782283016 -s 9 -d 13 -p cbr -e 532 -c 2 -a 0 -i 26 -k RTR
h -t 15.782283016 -s 9 -d 13 -p cbr -e 532 -c 2 -a 0 -i 26 -k RTR
r -t 15.788477252 -s 13 -d 13 -p cbr -e 512 -c 2 -a 0 -i 26 -k AGT
+ -t 15.844084911 -s 0 -d -1 -p cbr -e 512 -c 2 -a 0 -i 27 -k AGT 
- -t 15.844084911 -s 0 -d -1 -p cbr -e 512 -c 2 -a 0 -i 27 -k AGT
h -t 15.844084911 -s 0 -d -1 -p cbr -e 512 -c 2 -a 0 -i 27 -k AGT
+ -t 15.844084911 -s 0 -d 6 -p cbr -e 532 -c 2 -a 0 -i 27 -k RTR 
- -t 15.844084911 -s 0 -d 6 -p cbr -e 532 -c 2 -a 0 -i 27 -k RTR
h -t 15.844084911 -s 0 -d 6 -p cbr -e 532 -c 2 -a 0 -i 27 -k RTR
+ -t 15.849954911 -s 6 -d 9 -p cbr -e 532 -c 2 -a 0 -i 27 -k RTR 
- -t 15.849954911 -s 6 -d 9 -p cbr -e 532 -c 2 -a 0 -i 27 -k RTR
h -t 15.849954911 -s 6 -d 9 -p cbr -e 532 -c 2 -a 0 -i 27 -k RTR
+ -t 15.856187911 -s 9 -d 13 -p cbr -e 532 -c 2 -a 0 -i 27 -k RTR 
- -t 15.856187911 -s 9 -d 13 -p cbr -e 532 -c 2 -a 0 -i 27 -k RTR
h -t 15.856187911 -s 9 -d 13 -p cbr -e 532 -c 2 -a 0 -i 27 -k RTR
r -t 15.862382147 -s 13 -d 13 -p cbr -e 512 -c 2 -a 0 -i 27 -k AGT
+ -t 15.907208970 -s 0 -d -1 -p cbr -e 512 -c 2 -a 0 -i 28 -k AGT 
- -t 15.907208970 -s 0 -d -1 -p cbr -e 512 -c 2 -a 0 -i 28 -k AGT
h -t 15.907208970 -s 0 -d -1 -p cbr -e 512 -c 2 -a 0 -i 28 -k AGT
+ -t 15.907208970 -s 0 -d 6 -p cbr -e 532 -c 2 -a 0 -i 28 -k RTR 
- -t 15.907208970 -s 0 -d 6 -p cbr -e 532 -c 2 -a 0 -i 28 -k RTR
h -t 15.907208970 -s 0 -d 6 -p cbr -e 532 -c 2 -a 0 -i 28 -k RTR
+ -t 15.912858970 -s 6 -d 9 -p cbr -e 532 -c 2 -a 0 -i 28 -k RTR 
- -t 15.912858970 -s 6 -d 9 -p cbr -e 532 -c 2 -a 0 -i 28 -k RTR
h -t 15.912858970 -s 6 -d 9 -p cbr -e 532 -c 2 -a 0 -i 28 -k RTR
+ -t 15.918971970 -s 9 -d 13 -p cbr -e 532 -c 2 -a 0 -i 28 -k RTR 
- -t 15.918971970 -s 9 -d 13 -p cbr -e 532 -c 2 -a 0 -i 28 -k RTR
h -t 15.918971970 -s 9 -d 13 -p cbr -e 532 -c 2 -a 0 -i 28 -k RTR
r -t 15.924726206 -s 13 -d 13 -p cbr -e 512 -c 2 -a 0 -i 28 -k AGT
+ -t 15.954858705 -s 0 -d -1 -p cbr -e 512 -c 2 -a 0 -i 29 -k AGT 
- -t 15.954858705 -s 0 -d -1 -p cbr -e 512 -c 2 -a 0 -i 29 -k AGT
h -t 15.954858705 -s 0 -d -1 -p cbr -e 512 -c 2 -a 0 -i 29 -k AGT
+ -t 15.954858705 -s 0 -d 6 -p cbr -e 532 -c 2 -a 0 -i 29 -k RTR 
- -t 15.954858705 -s 0 -d 6 -p cbr -e 532 -c 2 -a 0 -i 29 -k RTR
h -t 15.954858705 -s 0 -d 6 -p cbr -e 532 -c 2 -a 0 -i 29 -k RTR
+ -t 15.960708705 -s 6 -d 9 -p cbr -e 532 -c 2 -a 0 -i 29 -k RTR 
- -t 15.960708705 -s 6 -d 9 -p cbr -e 532 -c 2 -a 0 -i 29 -k RTR
h -t 15.960708705 -s 6 -d 9 -p cbr -e 532 -c 2 -a 0 -i 29 -k RTR
+ -t 15.967021705 -s 9 -d 13 -p cbr -e 532 -c 2 -a 0 -i 29 -k RTR 
- -t 15.967021705 -s 9 -d 13 -p cbr -e 532 -c 2 -a 0 -i 29 -k RTR
h -t 15.967021705 -s 9 -d 13 -p cbr -e 532 -c 2 -a 0 -i 29 -k RTR
r -t 15.972955941 -s 13 -d 13 -p cbr -e 512 -c 2 -a 0 -i 29 -k AGT
+ -t 16.004598299 -s 0 -d -1 -p cbr -e 512 -c 2 -a 0 -i 30 -k AGT 
- -t 16.004598299 -s 0 -d -1 -p cbr -e 512 -c 2 -a 0 -i 30 -k AGT
h -t 16.004598299 -s 0 -d -1 -p cbr -e 512 -c 2 -a 0 -i 30 -k AGT
+ -t 16.004598299 -s 0 -d 6 -p cbr -e 532 -c 2 -a 0 -i 30 -k RTR 
- -t 16.004598299 -s 0 -d 6 -p cbr -e 532 -c 2 -a 0 -i 30 -k RTR
h -t 16.004598299 -s 0 -d 6 -p cbr -e 532 -c 2 -a 0 -i 30 -k RTR
+ -t 16.010468299 -s 6 -d 9 -p cbr -e 532 -c 2 -a 0 -i 30 -k RTR 
- -t 16.010468299 -s 6 -d 9 -p cbr -e 532 -c 2 -a 0 -i 30 -k RTR
h -t 16.010468299 -s 6 -d 9 -p cbr -e 532 -c 2 -a 0 -i 30 -k RTR
+ -t 16.016701299 -s 9 -d 13 -p cbr -e 532 -c 2 -a 0 -i 30 -k RTR 
- -t 16.016701299 -s 9 -d 13 -p cbr -e 532 -c 2 -a 0 -i 30 -k RTR
h -t 16.016701299 -s 9 -d 13 -p cbr -e 532 -c 2 -a 0 -i 30 -k RTR
r -t 16.022735535 -s 13 -d 13 -p cbr -e 512 -c 2 -a 0 -i 30 -k AGT
+ -t 16.073012649 -s 0 -d -1 -p cbr -e 512 -c 2 -a 0 -i 31 -k AGT 
- -t 16.073012649 -s 0 -d -1 -p cbr -e 512 -c 2 -a 0 -i 31 -k AGT
h -t 16.073012649 -s 0 -d -1 -p cbr -e 512 -c 2 -a 0 -i 31 -k AGT
+ -t 16.073012649 -s 0 -d 6 -p cbr -e 532 -c 2 -a 0 -i 31 -k RTR 
- -t 16.073012649 -s 0 -d 6 -p cbr -e 532 -c 2 -a 0 -i 31 -k RTR
h -t 16.073012649 -s 0 -d 6 -p cbr -e 532 -c 2 -a 0 -i 31 -k RTR
+ -t 16.078942649 -s 6 -d 9 -p cbr -e 532 -c 2 -a 0 -i 31 -k RTR 
- -t 16.078942649 -s 6 -d 9 -p cbr -e 532 -c 2 -a 0 -i 31 -k RTR
h -t 16.078942649 -s 6 -d 9 -p cbr -e 532 -c 2 -a 0 -i 31 -k RTR
+ -t 16.084875649 -s 9 -d 13 -p cbr -e 532 -c 2 -a 0 -i 31 -k RTR 
- -t 16.084875649 -s 9 -d 13 -p cbr -e 532 -c 2 -a 0 -i 31 -k RTR
h -t 16.084875649 -s 9 -d 13 -p cbr -e 532 -c 2 -a 0 -i 31 -k RTR
r -t 16.090869885 -s 13 -d 13 -p cbr -e 512 -c 2 -a 0 -i 31 -k AGT
+ -t 16.133151573 -s 0 -d -1 -p cbr -e 512 -c 2 -a 0 -i 32 -k AGT 
- -t 16.133151573 -s 0 -d -1 -p cbr -e 512 -c 2 -a 0 -i 32 -k AGT
h -t 16.133151573 -s 0 -d -1 -p cbr -e 512 -c 2 -a 0 -i 32 -k AGT
+ -t 16.133151573 -s 0 -d 6 -p cbr -e 532 -c 2 -a 0 -i 32 -k RTR 
- -t 16.133151573 -s 0 -d 6 -p cbr -e 532 -c 2 -a 0 -i 32 -k RTR
h -t 16.133151573 -s 0 -d 6 -p cbr -e 532 -c 2 -a 0 -i 32 -k RTR
+ -t 16.138901573 -s 6 -d 9 -p cbr -e 532 -c 2 -a 0 -i 32 -k RTR 
- -t 16.138901573 -s 6 -d 9 -p cbr -e 532 -c 2 -a 0 -i 32 -k RTR
h -t 16.138901573 -s 6 -d 9 -p cbr -e 532 -c 2 -a 0 -i 32 -k RTR
+ -t 16.144834573 -s 9 -d 13 -p cbr -e 532 -c 2 -a 0 -i 32 -k RTR 
- -t 16.144834573 -s 9 -d 13 -p cbr -e 532 -c 2 -a 0 -i 32 -k RTR
h -t 16.144834573 -s 9 -d 13 -p cbr -e 532 -c 2 -a 0 -i 32 -k RTR
r -t 16.151028809 -s 13 -d 13 -p cbr -e 512 -c 2 -a 0 -i 32 -k AGT
+ -t 16.173716733 -s 0 -d -1 -p cbr -e 512 -c 2 -a 0 -i 33 -k AGT 
- -t 16.173716733 -s 0 -d -1 -p cbr -e 512 -c 2 -a 0 -i 33 -k AGT
h -t 16.173716733 -s 0 -d -1 -p cbr -e 512 -c 2 -a 0 -i 33 -k AGT
+ -t 16.173716733 -s 0 -d 6 -p cbr -e 532 -c 2 -a 0 -i 33 -k RTR 
- -t 16.173716733 -s 0 -d 6 -p cbr -e 532 -c 2 -a 0 -i 33 -k RTR
h -t 16.173716733 -s 0 -d 6 -p cbr -e 532 -c 2 -a 0 -i 33 -k RTR
+ -t 16.179226733 -s 6 -d 9 -p cbr -e 532 -c 2 -a 0 -i 33 -k RTR 
- -t 16.179226733 -s 6 -d 9 -p cbr -e 532 -c 2 -a 0 -i 33 -k RTR
h -t 16.179226733 -s 6 -d 9 -p cbr -e 532 -c 2 -a 0 -i 33 -k RTR
+ -t 16.185419733 -s 9 -d 13 -p cbr -e 532 -c 2 -a 0 -i 33 -k RTR 
- -t 16.185419733 -s 9 -d 13 -p cbr -e 532 -c 2 -a 0 -i 33 -k RTR
h -t 16.185419733 -s 9 -d 13 -p cbr -e 532 -c 2 -a 0 -i 33 -k RTR
r -t 16.191633969 -s 13 -d 13 -p cbr -e 512 -c 2 -a 0 -i 33 -k AGT
+ -t 16.201649636 -s 0 -d -1 -p cbr -e 512 -c 2 -a 0 -i 34 -k AGT 
- -t 16.201649636 -s 0 -d -1 -p cbr -e 512 -c 2 -a 0 -i 34 -k AGT
h -t 16.201649636 -s 0 -d -1 -p cbr -e 512 -c 2 -a 0 -i 34 -k AGT
+ -t 16.201649636 -s 0 -d 6 -p cbr -e 532 -c 2 -a 0 -i 34 -k RTR 
- -t 16.201649636 -s 0 -d 6 -p cbr -e 532 -c 2 -a 0 -i 34 -k RTR
h -t 16.201649636 -s 0 -d 6 -p cbr -e 532 -c 2 -a 0 -i 34 -k RTR
+ -t 16.207399636 -s 6 -d 9 -p cbr -e 532 -c 2 -a 0 -i 34 -k RTR 
- -t 16.207399636 -s 6 -d 9 -p cbr -e 532 -c 2 -a 0 -i 34 -k RTR
h -t 16.207399636 -s 6 -d 9 -p cbr -e 532 -c 2 -a 0 -i 34 -k RTR
+ -t 16.213292636 -s 9 -d 13 -p cbr -e 532 -c 2 -a 0 -i 34 -k RTR 
- -t 16.213292636 -s 9 -d 13 -p cbr -e 532 -c 2 -a 0 -i 34 -k RTR
h -t 16.213292636 -s 9 -d 13 -p cbr -e 532 -c 2 -a 0 -i 34 -k RTR
r -t 16.219146872 -s 13 -d 13 -p cbr -e 512 -c 2 -a 0 -i 34 -k AGT
+ -t 16.240568109 -s 0 -d -1 -p cbr -e 512 -c 2 -a 0 -i 35 -k AGT 
- -t 16.240568109 -s 0 -d -1 -p cbr -e 512 -c 2 -a 0 -i 35 -k AGT
h -t 16.240568109 -s 0 -d -1 -p cbr -e 512 -c 2 -a 0 -i 35 -k AGT
+ -t 16.240568109 -s 0 -d 6 -p cbr -e 532 -c 2 -a 0 -i 35 -k RTR 
- -t 16.240568109 -s 0 -d 6 -p cbr -e 532 -c 2 -a 0 -i 35 -k RTR