Sconfig 0.00000 tap: on snoop: rts? on errs? on
Sconfig 0.00000 salvage: on !bd replies? on
Sconfig 0.00000 grat error: on grat reply: on
Sconfig 0.00000 $reply for props: on ring 0 search: on
Sconfig 0.00000 using MOBICACHE
s 15.000000000 _0_ AGT  --- 0 cbr 512 [0 0 0 0] ------- [0:0 7:0 32 0] [0] 0 0
r 15.000000000 _0_ RTR  --- 0 cbr 512 [0 0 0 0] ------- [0:0 7:0 32 0] [0] 0 0
s 15.007717238 _0_ RTR  --- 1 DSR 32 [0 0 0 0] ------- [0:255 7:255 32 0] 1 [1 1] [0 1 0 0->0] [0 0 0 0->0]
r 15.008529904 _3_ RTR  --- 1 DSR 32 [0 ffffffff 0 800] ------- [0:255 7:255 32 0] 1 [1 1] [0 1 0 0->0] [0 0 0 0->0]
r 15.008529904 _1_ RTR  --- 1 DSR 32 [0 ffffffff 0 800] ------- [0:255 7:255 32 0] 1 [1 1] [0 1 0 0->0] [0 0 0 0->0]
s 15.056952203 _0_ AGT  --- 3 cbr 512 [0 0 0 0] ------- [0:0 7:0 32 0] [1] 0 0
r 15.056952203 _0_ RTR  --- 3 cbr 512 [0 0 0 0] ------- [0:0 7:0 32 0] [1] 0 0
s 15.057794925 _0_ RTR  --- 4 DSR 32 [0 0 0 0] ------- [0:255 7:255 32 0] 1 [1 2] [0 2 0 0->16] [0 0 0 0->0]
r 15.059047592 _3_ RTR  --- 4 DSR 32 [0 ffffffff 0 800] ------- [0:255 7:255 32 0] 1 [1 2] [0 2 0 0->16] [0 0 0 0->0]
r 15.059047592 _1_ RTR  --- 4 DSR 32 [0 ffffffff 0 800] ------- [0:255 7:255 32 0] 1 [1 2] [0 2 0 0->16] [0 0 0 0->0]
f 15.061588581 _3_ RTR  --- 4 DSR 48 [0 ffffffff 0 800] ------- [0:255 7:255 32 0] 2 [1 2] [0 2 0 0->16] [0 0 0 0->0]
f 15.061943224 _1_ RTR  --- 4 DSR 48 [0 ffffffff 0 800] ------- [0:255 7:255 32 0] 2 [1 2] [0 2 0 0->16] [0 0 0 0->0]
r 15.062549247 _0_ RTR  --- 4 DSR 48 [0 ffffffff 3 800] ------- [0:255 7:255 32 0] 2 [1 2] [0 2 0 0->16] [0 0 0 0->0]
r 15.062549247 _6_ RTR  --- 4 DSR 48 [0 ffffffff 3 800] ------- [0:255 7:255 32 0] 2 [1 2] [0 2 0 0->16] [0 0 0 0->0]
r 15.062549247 _4_ RTR  --- 4 DSR 48 [0 ffffffff 3 800] ------- [0:255 7:255 32 0] 2 [1 2] [0 2 0 0->16] [0 0 0 0->0]
r 15.064064190 _0_ RTR  --- 4 DSR 48 [0 ffffffff 1 800] ------- [0:255 7:255 32 0] 2 [1 2] [0 2 0 0->16] [0 0 0 0->0]
r 15.064064190 _4_ RTR  --- 4 DSR 48 [0 ffffffff 1 800] ------- [0:255 7:255 32 0] 2 [1 2] [0 2 0 0->16] [0 0 0 0->0]
r 15.064064190 _2_ RTR  --- 4 DSR 48 [0 ffffffff 1 800] ------- [0:255 7:255 32 0] 2 [1 2] [0 2 0 0->16] [0 0 0 0->0]
r 15.064064269 _9_ RTR  --- 4 DSR 48 [0 ffffffff 1 800] ------- [0:255 7:255 32 0] 2 [1 2] [0 2 0 0->16] [0 0 0 0->0]
f 15.069966514 _9_ RTR  --- 4 DSR 68 [0 ffffffff 1 800] ------- [0:255 7:255 32 0] 3 [1 2] [0 2 0 0->16] [0 0 0 0->0]
f 15.070161000 _6_ RTR  --- 4 DSR 68 [0 ffffffff 3 800] ------- [0:255 7:255 32 0] 3 [1 2] [0 2 0 0->16] [0 0 0 0->0]
r 15.071526848 _5_ RTR  --- 4 DSR 68 [0 ffffffff 9 800] ------- [0:255 7:255 32 0] 3 [1 2] [0 2 0 0->16] [0 0 0 0->0]
r 15.071526848 _2_ RTR  --- 4 DSR 68 [0 ffffffff 9 800] ------- [0:255 7:255 32 0] 3 [1 2] [0 2 0 0->16] [0 0 0 0->0]
r 15.071527260 _4_ RTR  --- 4 DSR 68 [0 ffffffff 9 800] ------- [0:255 7:255 32 0] 3 [1 2] [0 2 0 0->16] [0 0 0 0->0]
r 15.071527260 _1_ RTR  --- 4 DSR 68 [0 ffffffff 9 800] ------- [0:255 7:255 32 0] 3 [1 2] [0 2 0 0->16] [0 0 0 0->0]
f 15.072207354 _4_ RTR  --- 4 DSR 68 [0 ffffffff 3 800] ------- [0:255 7:255 32 0] 3 [1 2] [0 2 0 0->16] [0 0 0 0->0]
r 15.073162848 _3_ RTR  --- 4 DSR 68 [0 ffffffff 6 800] ------- [0:255 7:255 32 0] 3 [1 2] [0 2 0 0->16] [0 0 0 0->0]
r 15.073162848 _7_ RTR  --- 4 DSR 68 [0 ffffffff 6 800] ------- [0:255 7:255 32 0] 3 [1 2] [0 2 0 0->16] [0 0 0 0->0]
f 15.073634767 _2_ RTR  --- 4 DSR 68 [0 ffffffff 1 800] ------- [0:255 7:255 32 0] 3 [1 2] [0 2 0 0->16] [0 0 0 0->0]
r 15.074717790 _1_ RTR  --- 4 DSR 68 [0 ffffffff 4 800] ------- [0:255 7:255 32 0] 3 [1 2] [0 2 0 0->16] [0 0 0 0->0]
r 15.074717790 _3_ RTR  --- 4 DSR 68 [0 ffffffff 4 800] ------- [0:255 7:255 32 0] 3 [1 2] [0 2 0 0->16] [0 0 0 0->0]
r 15.074717790 _7_ RTR  --- 4 DSR 68 [0 ffffffff 4 800] ------- [0:255 7:255 32 0] 3 [1 2] [0 2 0 0->16] [0 0 0 0->0]
r 15.074717790 _5_ RTR  --- 4 DSR 68 [0 ffffffff 4 800] ------- [0:255 7:255 32 0] 3 [1 2] [0 2 0 0->16] [0 0 0 0->0]
r 15.074717869 _9_ RTR  --- 4 DSR 68 [0 ffffffff 4 800] ------- [0:255 7:255 32 0] 3 [1 2] [0 2 0 0->16] [0 0 0 0->0]
s 15.074844845 _7_ RTR  --- 5 DSR 60 [0 0 0 0] ------- [7:255 0:255 254 6] 4 [0 2] [1 2 4 0->7] [0 0 0 0->0]
f 15.075440012 _5_ RTR  --- 4 DSR 92 [0 ffffffff 9 800] ------- [0:255 7:255 32 0] 4 [1 2] [0 2 0 0->16] [0 0 0 0->0]
r 15.076678845 _6_ RTR  --- 5 DSR 60 [13a 6 7 800] ------- [7:255 0:255 254 6] 4 [0 2] [1 2 4 0->7] [0 0 0 0->0]
f 15.076678845 _6_ RTR  --- 5 DSR 60 [13a 6 7 800] ------- [7:255 0:255 253 3] 4 [0 2] [1 2 4 0->7] [0 0 0 0->0]
r 15.080636845 _3_ RTR  --- 5 DSR 60 [13a 3 6 800] ------- [7:255 0:255 253 3] 4 [0 2] [1 2 4 0->7] [0 0 0 0->0]
f 15.080636845 _3_ RTR  --- 5 DSR 60 [13a 3 6 800] ------- [7:255 0:255 252 0] 4 [0 2] [1 2 4 0->7] [0 0 0 0->0]
r 15.082694845 _0_ RTR  --- 5 DSR 60 [13a 0 3 800] ------- [7:255 0:255 252 0] 4 [0 2] [1 2 4 0->7] [0 0 0 0->0]
SFESTs 15.082694845 _0_ 0 [0 -> 7] 1(1) to 3 [0 |3 6 7 ]
SFESTs 15.082694845 _0_ 3 [0 -> 7] 1(1) to 3 [0 |3 6 7 ]
s 15.082694845 _0_ RTR  --- 0 cbr 556 [0 0 0 0] ------- [0:0 7:0 32 3] [0] 0 0
s 15.083787134 _7_ RTR  --- 6 DSR 60 [0 0 0 0] ------- [7:255 0:255 254 4] 4 [0 2] [1 2 4 0->7] [0 0 0 0->0]
r 15.089020845 _3_ RTR  --- 0 cbr 556 [13a 3 0 800] ------- [0:0 7:0 32 3] [0] 1 0
f 15.089020845 _3_ RTR  --- 0 cbr 556 [13a 3 0 800] ------- [0:0 7:0 31 6] [0] 1 0
s 15.092282593 _0_ AGT  --- 7 cbr 512 [0 0 0 0] ------- [0:0 7:0 32 0] [2] 0 0
r 15.092282593 _0_ RTR  --- 7 cbr 512 [0 0 0 0] ------- [0:0 7:0 32 0] [2] 0 0
SFESTs 15.092282593 _0_ 7 [0 -> 7] 1(1) to 3 [0 |3 6 7 ]
s 15.092282593 _0_ RTR  --- 7 cbr 556 [0 0 0 0] ------- [0:0 7:0 32 3] [2] 0 0
r 15.094946845 _6_ RTR  --- 0 cbr 556 [13a 6 3 800] ------- [0:0 7:0 31 6] [0] 2 0
f 15.094946845 _6_ RTR  --- 0 cbr 556 [13a 6 3 800] ------- [0:0 7:0 30 7] [0] 2 0
r 15.097175121 _4_ RTR  --- 6 DSR 60 [13a 4 7 800] ------- [7:255 0:255 254 4] 4 [0 2] [1 2 4 0->7] [0 0 0 0->0]
f 15.097175121 _4_ RTR  --- 6 DSR 60 [13a 4 7 800] ------- [7:255 0:255 253 3] 4 [0 2] [1 2 4 0->7] [0 0 0 0->0]
r 15.099133121 _3_ RTR  --- 6 DSR 60 [13a 3 4 800] ------- [7:255 0:255 253 3] 4 [0 2] [1 2 4 0->7] [0 0 0 0->0]
f 15.099133121 _3_ RTR  --- 6 DSR 60 [13a 3 4 800] ------- [7:255 0:255 252 0] 4 [0 2] [1 2 4 0->7] [0 0 0 0->0]
r 15.101251121 _0_ RTR  --- 6 DSR 60 [13a 0 3 800] ------- [7:255 0:255 252 0] 4 [0 2] [1 2 4 0->7] [0 0 0 0->0]
r 15.107377121 _3_ RTR  --- 7 cbr 556 [13a 3 0 800] ------- [0:0 7:0 32 3] [2] 1 0
f 15.107377121 _3_ RTR  --- 7 cbr 556 [13a 3 0 800] ------- [0:0 7:0 31 6] [2] 1 0
s 15.112694845 _0_ RTR  --- 3 cbr 556 [0 0 0 0] ------- [0:0 7:0 32 3] [1] 0 0
r 15.113463121 _6_ RTR  --- 7 cbr 556 [13a 6 3 800] ------- [0:0 7:0 31 6] [2] 2 0
f 15.113463121 _6_ RTR  --- 7 cbr 556 [13a 6 3 800] ------- [0:0 7:0 30 7] [2] 2 0
r 15.119449121 _7_ RTR  --- 0 cbr 556 [13a 7 6 800] ------- [0:0 7:0 30 7] [0] 3 0
r 15.119449121 _7_ AGT  --- 0 cbr 512 [13a 7 6 800] ------- [0:0 7:0 30 7] [0] 3 0
r 15.125635787 _7_ RTR  --- 7 cbr 556 [13a 7 6 800] ------- [0:0 7:0 30 7] [2] 3 0
r 15.125635787 _7_ AGT  --- 7 cbr 512 [13a 7 6 800] ------- [0:0 7:0 30 7] [2] 3 0
r 15.131967278 _3_ RTR  --- 3 cbr 556 [13a 3 0 800] ------- [0:0 7:0 32 3] [1] 1 0
f 15.131967278 _3_ RTR  --- 3 cbr 556 [13a 3 0 800] ------- [0:0 7:0 31 6] [1] 1 0
r 15.138153278 _6_ RTR  --- 3 cbr 556 [13a 6 3 800] ------- [0:0 7:0 31 6] [1] 2 0
f 15.138153278 _6_ RTR  --- 3 cbr 556 [13a 6 3 800] ------- [0:0 7:0 30 7] [1] 2 0
r 15.140095102 _9_ RTR  --- 4 DSR 92 [0 ffffffff 5 800] ------- [0:255 7:255 32 0] 4 [1 2] [0 2 0 0->16] [0 0 0 0->0]
r 15.140095435 _2_ RTR  --- 4 DSR 92 [0 ffffffff 5 800] ------- [0:255 7:255 32 0] 4 [1 2] [0 2 0 0->16] [0 0 0 0->0]
r 15.140095435 _4_ RTR  --- 4 DSR 92 [0 ffffffff 5 800] ------- [0:255 7:255 32 0] 4 [1 2] [0 2 0 0->16] [0 0 0 0->0]
r 15.140095435 _8_ RTR  --- 4 DSR 92 [0 ffffffff 5 800] ------- [0:255 7:255 32 0] 4 [1 2] [0 2 0 0->16] [0 0 0 0->0]
s 15.140095435 _8_ RTR  --- 8 DSR 72 [0 0 0 0] ------- [8:255 0:255 255 5] 5 [0 2] [1 2 6 0->7] [0 0 0 0->0]
s 15.144544399 _0_ AGT  --- 9 cbr 512 [0 0 0 0] ------- [0:0 7:0 32 0] [3] 0 0
r 15.144544399 _0_ RTR  --- 9 cbr 512 [0 0 0 0] ------- [0:0 7:0 32 0] [3] 0 0
SFs 15.144544399 _0_ 9 [0 -> 7] 1(0) to 3 
s 15.144544399 _0_ RTR  --- 9 cbr 532 [0 0 0 0] ------- [0:0 7:0 32 3] [3] 0 0
r 15.146072260 _7_ RTR  --- 3 cbr 556 [13a 7 6 800] ------- [0:0 7:0 30 7] [1] 3 0
r 15.146072260 _7_ AGT  --- 3 cbr 512 [13a 7 6 800] ------- [0:0 7:0 30 7] [1] 3 0
r 15.148296926 _5_ RTR  --- 8 DSR 72 [13a 5 8 800] ------- [8:255 0:255 255 5] 5 [0 2] [1 2 6 0->7] [0 0 0 0->0]
f 15.148296926 _5_ RTR  --- 8 DSR 72 [13a 5 8 800] ------- [8:255 0:255 254 9] 5 [0 2] [1 2 6 0->7] [0 0 0 0->0]
r 15.150745574 _9_ RTR  --- 8 DSR 72 [13a 9 5 800] ------- [8:255 0:255 254 9] 5 [0 2] [1 2 6 0->7] [0 0 0 0->0]
f 15.150745574 _9_ RTR  --- 8 DSR 72 [13a 9 5 800] ------- [8:255 0:255 253 1] 5 [0 2] [1 2 6 0->7] [0 0 0 0->0]
r 15.153199810 _1_ RTR  --- 8 DSR 72 [13a 1 9 800] ------- [8:255 0:255 253 1] 5 [0 2] [1 2 6 0->7] [0 0 0 0->0]
f 15.153199810 _1_ RTR  --- 8 DSR 72 [13a 1 9 800] ------- [8:255 0:255 252 0] 5 [0 2] [1 2 6 0->7] [0 0 0 0->0]
r 15.155573810 _0_ RTR  --- 8 DSR 72 [13a 0 1 800] ------- [8:255 0:255 252 0] 5 [0 2] [1 2 6 0->7] [0 0 0 0->0]
r 15.162067810 _3_ RTR  --- 9 cbr 532 [13a 3 0 800] ------- [0:0 7:0 32 3] [3] 1 0
SFf 15.162067810 _3_ 9 [0 -> 7] 1 to 6
f 15.162067810 _3_ RTR  --- 9 cbr 532 [13a 3 0 800] ------- [0:0 7:0 31 6] [3] 1 0
r 15.168201810 _6_ RTR  --- 9 cbr 532 [13a 6 3 800] ------- [0:0 7:0 31 6] [3] 2 0
SFf 15.168201810 _6_ 9 [0 -> 7] 1 to 7
f 15.168201810 _6_ RTR  --- 9 cbr 532 [13a 6 3 800] ------- [0:0 7:0 30 7] [3] 2 0
r 15.174455810 _7_ RTR  --- 9 cbr 532 [13a 7 6 800] ------- [0:0 7:0 30 7] [3] 3 0
r 15.174455810 _7_ AGT  --- 9 cbr 512 [13a 7 6 800] ------- [0:0 7:0 30 7] [3] 3 0
s 15.197594447 _0_ AGT  --- 10 cbr 512 [0 0 0 0] ------- [0:0 7:0 32 0] [4] 0 0
r 15.197594447 _0_ RTR  --- 10 cbr 512 [0 0 0 0] ------- [0:0 7:0 32 0] [4] 0 0
SFs 15.197594447 _0_ 10 [0 -> 7] 1(0) to 3 
s 15.197594447 _0_ RTR  --- 10 cbr 532 [0 0 0 0] ------- [0:0 7:0 32 3] [4] 0 0
r 15.203084447 _3_ RTR  --- 10 cbr 532 [13a 3 0 800] ------- [0:0 7:0 32 3] [4] 1 0
SFf 15.203084447 _3_ 10 [0 -> 7] 1 to 6
f 15.203084447 _3_ RTR  --- 10 cbr 532 [13a 3 0 800] ------- [0:0 7:0 31 6] [4] 1 0
r 15.209278447 _6_ RTR  --- 10 cbr 532 [13a 6 3 800] ------- [0:0 7:0 31 6] [4] 2 0
SFf 15.209278447 _6_ 10 [0 -> 7] 1 to 7
f 15.209278447 _6_ RTR  --- 10 cbr 532 [13a 6 3 800] ------- [0:0 7:0 30 7] [4] 2 0
r 15.215532447 _7_ RTR  --- 10 cbr 532 [13a 7 6 800] ------- [0:0 7:0 30 7] [4] 3 0
r 15.215532447 _7_ AGT  --- 10 cbr 512 [13a 7 6 800] ------- [0:0 7:0 30 7] [4] 3 0
s 15.243526414 _0_ AGT  --- 11 cbr 512 [0 0 0 0] ------- [0:0 7:0 32 0] [5] 0 0
r 15.243526414 _0_ RTR  --- 11 cbr 512 [0 0 0 0] ------- [0:0 7:0 32 0] [5] 0 0
SFs 15.243526414 _0_ 11 [0 -> 7] 1(0) to 3 
s 15.243526414 _0_ RTR  --- 11 cbr 532 [0 0 0 0] ------- [0:0 7:0 32 3] [5] 0 0
r 15.249536414 _3_ RTR  --- 11 cbr 532 [13a 3 0 800] ------- [0:0 7:0 32 3] [5] 1 0
SFf 15.249536414 _3_ 11 [0 -> 7] 1 to 6
f 15.249536414 _3_ RTR  --- 11 cbr 532 [13a 3 0 800] ------- [0:0 7:0 31 6] [5] 1 0
r 15.255390414 _6_ RTR  --- 11 cbr 532 [13a 6 3 800] ------- [0:0 7:0 31 6] [5] 2 0
SFf 15.255390414 _6_ 11 [0 -> 7] 1 to 7
f 15.255390414 _6_ RTR  --- 11 cbr 532 [13a 6 3 800] ------- [0:0 7:0 30 7] [5] 2 0
r 15.261584414 _7_ RTR  --- 11 cbr 532 [13a 7 6 800] ------- [0:0 7:0 30 7] [5] 3 0
r 15.261584414 _7_ AGT  --- 11 cbr 512 [13a 7 6 800] ------- [0:0 7:0 30 7] [5] 3 0
s 15.305157042 _0_ AGT  --- 12 cbr 512 [0 0 0 0] ------- [0:0 7:0 32 0] [6] 0 0
r 15.305157042 _0_ RTR  --- 12 cbr 512 [0 0 0 0] ------- [0:0 7:0 32 0] [6] 0 0
SFs 15.305157042 _0_ 12 [0 -> 7] 1(0) to 3 
s 15.305157042 _0_ RTR  --- 12 cbr 532 [0 0 0 0] ------- [0:0 7:0 32 3] [6] 0 0
r 15.310847042 _3_ RTR  --- 12 cbr 532 [13a 3 0 800] ------- [0:0 7:0 32 3] [6] 1 0
SFf 15.310847042 _3_ 12 [0 -> 7] 1 to 6
f 15.310847042 _3_ RTR  --- 12 cbr 532 [13a 3 0 800] ------- [0:0 7:0 31 6] [6] 1 0
r 15.316741042 _6_ RTR  --- 12 cbr 532 [13a 6 3 800] ------- [0:0 7:0 31 6] [6] 2 0
SFf 15.316741042 _6_ 12 [0 -> 7] 1 to 7
f 15.316741042 _6_ RTR  --- 12 cbr 532 [13a 6 3 800] ------- [0:0 7:0 30 7] [6] 2 0
r 15.323015042 _7_ RTR  --- 12 cbr 532 [13a 7 6 800] ------- [0:0 7:0 30 7] [6] 3 0
r 15.323015042 _7_ AGT  --- 12 cbr 512 [13a 7 6 800] ------- [0:0 7:0 30 7] [6] 3 0
s 15.345202330 _0_ AGT  --- 13 cbr 512 [0 0 0 0] ------- [0:0 7:0 32 0] [7] 0 0
r 15.345202330 _0_ RTR  --- 13 cbr 512 [0 0 0 0] ------- [0:0 7:0 32 0] [7] 0 0
SFs 15.345202330 _0_ 13 [0 -> 7] 1(0) to 3 
s 15.345202330 _0_ RTR  --- 13 cbr 532 [0 0 0 0] ------- [0:0 7:0 32 3] [7] 0 0
r 15.350992330 _3_ RTR  --- 13 cbr 532 [13a 3 0 800] ------- [0:0 7:0 32 3] [7] 1 0
SFf 15.350992330 _3_ 13 [0 -> 7] 1 to 6
f 15.350992330 _3_ RTR  --- 13 cbr 532 [13a 3 0 800] ------- [0:0 7:0 31 6] [7] 1 0
r 15.356766330 _6_ RTR  --- 13 cbr 532 [13a 6 3 800] ------- [0:0 7:0 31 6] [7] 2 0
SFf 15.356766330 _6_ 13 [0 -> 7] 1 to 7
f 15.356766330 _6_ RTR  --- 13 cbr 532 [13a 6 3 800] ------- [0:0 7:0 30 7] [7] 2 0
r 15.362920330 _7_ RTR  --- 13 cbr 532 [13a 7 6 800] ------- [0:0 7:0 30 7] [7] 3 0
r 15.362920330 _7_ AGT  --- 13 cbr 512 [13a 7 6 800] ------- [0:0 7:0 30 7] [7] 3 0
s 15.397810995 _0_ AGT  --- 14 cbr 512 [0 0 0 0] ------- [0:0 7:0 32 0] [8] 0 0
r 15.397810995 _0_ RTR  --- 14 cbr 512 [0 0 0 0] ------- [0:0 7:0 32 0] [8] 0 0
SFs 15.397810995 _0_ 14 [0 -> 7] 1(0) to 3 
s 15.397810995 _0_ RTR  --- 14 cbr 532 [0 0 0 0] ------- [0:0 7:0 32 3] [8] 0 0
r 15.403440995 _3_ RTR  --- 14 cbr 532 [13a 3 0 800] ------- [0:0 7:0 32 3] [8] 1 0
SFf 15.403440995 _3_ 14 [0 -> 7] 1 to 6
f 15.403440995 _3_ RTR  --- 14 cbr 532 [13a 3 0 800] ------- [0:0 7:0 31 6] [8] 1 0
r 15.409654995 _6_ RTR  --- 14 cbr 532 [13a 6 3 800] ------- [0:0 7:0 31 6] [8] 2 0
SFf 15.409654995 _6_ 14 [0 -> 7] 1 to 7
f 15.409654995 _6_ RTR  --- 14 cbr 532 [13a 6 3 800] ------- [0:0 7:0 30 7] [8] 2 0
r 15.415748995 _7_ RTR  --- 14 cbr 532 [13a 7 6 800] ------- [0:0 7:0 30 7] [8] 3 0
r 15.415748995 _7_ AGT  --- 14 cbr 512 [13a 7 6 800] ------- [0:0 7:0 30 7] [8] 3 0
s 15.422842765 _0_ AGT  --- 15 cbr 512 [0 0 0 0] ------- [0:0 7:0 32 0] [9] 0 0
r 15.422842765 _0_ RTR  --- 15 cbr 512 [0 0 0 0] ------- [0:0 7:0 32 0] [9] 0 0
SFs 15.422842765 _0_ 15 [0 -> 7] 1(0) to 3 
s 15.422842765 _0_ RTR  --- 15 cbr 532 [0 0 0 0] ------- [0:0 7:0 32 3] [9] 0 0
r 15.428872765 _3_ RTR  --- 15 cbr 532 [13a 3 0 800] ------- [0:0 7:0 32 3] [9] 1 0
SFf 15.428872765 _3_ 15 [0 -> 7] 1 to 6
f 15.428872765 _3_ RTR  --- 15 cbr 532 [13a 3 0 800] ------- [0:0 7:0 31 6] [9] 1 0
r 15.434626765 _6_ RTR  --- 15 cbr 532 [13a 6 3 800] ------- [0:0 7:0 31 6] [9] 2 0
SFf 15.434626765 _6_ 15 [0 -> 7] 1 to 7
f 15.434626765 _6_ RTR  --- 15 cbr 532 [13a 6 3 800] ------- [0:0 7:0 30 7] [9] 2 0
r 15.440560765 _7_ RTR  --- 15 cbr 532 [13a 7 6 800] ------- [0:0 7:0 30 7] [9] 3 0
r 15.440560765 _7_ AGT  --- 15 cbr 512 [13a 7 6 800] ------- [0:0 7:0 30 7] [9] 3 0
s 15.481811233 _0_ AGT  --- 16 cbr 512 [0 0 0 0] ------- [0:0 7:0 32 0] [10] 0 0
r 15.481811233 _0_ RTR  --- 16 cbr 512 [0 0 0 0] ------- [0:0 7:0 32 0] [10] 0 0
SFs 15.481811233 _0_ 16 [0 -> 7] 1(0) to 3 
s 15.481811233 _0_ RTR  --- 16 cbr 532 [0 0 0 0] ------- [0:0 7:0 32 3] [10] 0 0
r 15.487641233 _3_ RTR  --- 16 cbr 532 [13a 3 0 800] ------- [0:0 7:0 32 3] [10] 1 0
SFf 15.487641233 _3_ 16 [0 -> 7] 1 to 6
f 15.487641233 _3_ RTR  --- 16 cbr 532 [13a 3 0 800] ------- [0:0 7:0 31 6] [10] 1 0
r 15.493475233 _6_ RTR  --- 16 cbr 532 [13a 6 3 800] ------- [0:0 7:0 31 6] [10] 2 0
SFf 15.493475233 _6_ 16 [0 -> 7] 1 to 7
f 15.493475233 _6_ RTR  --- 16 cbr 532 [13a 6 3 800] ------- [0:0 7:0 30 7] [10] 2 0
r 15.499389233 _7_ RTR  --- 16 cbr 532 [13a 7 6 800] ------- [0:0 7:0 30 7] [10] 3 0
r 15.499389233 _7_ AGT  --- 16 cbr 512 [13a 7 6 800] ------- [0:0 7:0 30 7] [10] 3 0
s 15.528950267 _0_ AGT  --- 17 cbr 512 [0 0 0 0] ------- [0:0 7:0 32 0] [11] 0 0
r 15.528950267 _0_ RTR  --- 17 cbr 512 [0 0 0 0] ------- [0:0 7:0 32 0] [11] 0 0
SFs 15.528950267 _0_ 17 [0 -> 7] 1(0) to 3 
s 15.528950267 _0_ RTR  --- 17 cbr 532 [0 0 0 0] ------- [0:0 7:0 32 3] [11] 0 0
r 15.534600267 _3_ RTR  --- 17 cbr 532 [13a 3 0 800] ------- [0:0 7:0 32 3] [11] 1 0
SFf 15.534600267 _3_ 17 [0 -> 7] 1 to 6
f 15.534600267 _3_ RTR  --- 17 cbr 532 [13a 3 0 800] ------- [0:0 7:0 31 6] [11] 1 0
r 15.540874267 _6_ RTR  --- 17 cbr 532 [13a 6 3 800] ------- [0:0 7:0 31 6] [11] 2 0
SFf 15.540874267 _6_ 17 [0 -> 7] 1 to 7
f 15.540874267 _6_ RTR  --- 17 cbr 532 [13a 6 3 800] ------- [0:0 7:0 30 7] [11] 2 0
r 15.546788267 _7_ RTR  --- 17 cbr 532 [13a 7 6 800] ------- [0:0 7:0 30 7] [11] 3 0
r 15.546788267 _7_ AGT  --- 17 cbr 512 [13a 7 6 800] ------- [0:0 7:0 30 7] [11] 3 0
s 15.591817245 _0_ AGT  --- 18 cbr 512 [0 0 0 0] ------- [0:0 7:0 32 0] [12] 0 0
r 15.591817245 _0_ RTR  --- 18 cbr 512 [0 0 0 0] ------- [0:0 7:0 32 0] [12] 0 0
SFs 15.591817245 _0_ 18 [0 -> 7] 1(0) to 3 
s 15.591817245 _0_ RTR  --- 18 cbr 532 [0 0 0 0] ------- [0:0 7:0 32 3] [12] 0 0
r 15.597347245 _3_ RTR  --- 18 cbr 532 [13a 3 0 800] ------- [0:0 7:0 32 3] [12] 1 0
SFf 15.597347245 _3_ 18 [0 -> 7] 1 to 6
f 15.597347245 _3_ RTR  --- 18 cbr 532 [13a 3 0 800] ------- [0:0 7:0 31 6] [12] 1 0
r 15.603661245 _6_ RTR  --- 18 cbr 532 [13a 6 3 800] ------- [0:0 7:0 31 6] [12] 2 0
SFf 15.603661245 _6_ 18 [0 -> 7] 1 to 7
f 15.603661245 _6_ RTR  --- 18 cbr 532 [13a 6 3 800] ------- [0:0 7:0 30 7] [12] 2 0
r 15.609435245 _7_ RTR  --- 18 cbr 532 [13a 7 6 800] ------- [0:0 7:0 30 7] [12] 3 0
r 15.609435245 _7_ AGT  --- 18 cbr 512 [13a 7 6 800] ------- [0:0 7:0 30 7] [12] 3 0
s 15.665980941 _0_ AGT  --- 19 cbr 512 [0 0 0 0] ------- [0:0 7:0 32 0] [13] 0 0
r 15.665980941 _0_ RTR  --- 19 cbr 512 [0 0 0 0] ------- [0:0 7:0 32 0] [13] 0 0
SFs 15.665980941 _0_ 19 [0 -> 7] 1(0) to 3 
s 15.665980941 _0_ RTR  --- 19 cbr 532 [0 0 0 0] ------- [0:0 7:0 32 3] [13] 0 0
r 15.671950941 _3_ RTR  --- 19 cbr 532 [13a 3 0 800] ------- [0:0 7:0 32 3] [13] 1 0
SFf 15.671950941 _3_ 19 [0 -> 7] 1 to 6
f 15.671950941 _3_ RTR  --- 19 cbr 532 [13a 3 0 800] ------- [0:0 7:0 31 6] [13] 1 0
r 15.677664941 _6_ RTR  --- 19 cbr 532 [13a 6 3 800] ------- [0:0 7:0 31 6] [13] 2 0
SFf 15.677664941 _6_ 19 [0 -> 7] 1 to 7
f 15.677664941 _6_ RTR  --- 19 cbr 532 [13a 6 3 800] ------- [0:0 7:0 30 7] [13] 2 0
r 15.683918941 _7_ RTR  --- 19 cbr 532 [13a 7 6 800] ------- [0:0 7:0 30 7] [13] 3 0
r 15.683918941 _7_ AGT  --- 19 cbr 512 [13a 7 6 800] ------- [0:0 7:0 30 7] [13] 3 0
s 15.718784299 _0_ AGT  --- 20 cbr 512 [0 0 0 0] ------- [0:0 7:0 32 0] [14] 0 0
r 15.718784299 _0_ RTR  --- 20 cbr 512 [0 0 0 0] ------- [0:0 7:0 32 0] [14] 0 0
SFs 15.718784299 _0_ 20 [0 -> 7] 1(0) to 3 
s 15.718784299 _0_ RTR  --- 20 cbr 532 [0 0 0 0] ------- [0:0 7:0 32 3] [14] 0 0
r 15.724394299 _3_ RTR  --- 20 cbr 532 [13a 3 0 800] ------- [0:0 7:0 32 3] [14] 1 0
SFf 15.724394299 _3_ 20 [0 -> 7] 1 to 6
f 15.724394299 _3_ RTR  --- 20 cbr 532 [13a 3 0 800] ------- [0:0 7:0 31 6] [14] 1 0
r 15.730248299 _6_ RTR  --- 20 cbr 532 [13a 6 3 800] ------- [0:0 7:0 31 6] [14] 2 0
SFf 15.730248299 _6_ 20 [0 -> 7] 1 to 7
f 15.730248299 _6_ RTR  --- 20 cbr 532 [13a 6 3 800] ------- [0:0 7:0 30 7] [14] 2 0
r 15.736142299 _7_ RTR  --- 20 cbr 532 [13a 7 6 800] ------- [0:0 7:0 30 7] [14] 3 0
r 15.736142299 _7_ AGT  --- 20 cbr 512 [13a 7 6 800] ------- [0:0 7:0 30 7] [14] 3 0
s 15.783341949 _0_ AGT  --- 21 cbr 512 [0 0 0 0] ------- [0:0 7:0 32 0] [15] 0 0
r 15.783341949 _0_ RTR  --- 21 cbr 512 [0 0 0 0] ------- [0:0 7:0 32 0] [15] 0 0
SFs 15.783341949 _0_ 21 [0 -> 7] 1(0) to 3 
s 15.783341949 _0_ RTR  --- 21 cbr 532 [0 0 0 0] ------- [0:0 7:0 32 3] [15] 0 0
r 15.789031949 _3_ RTR  --- 21 cbr 532 [13a 3 0 800] ------- [0:0 7:0 32 3] [15] 1 0
SFf 15.789031949 _3_ 21 [0 -> 7] 1 to 6
f 15.789031949 _3_ RTR  --- 21 cbr 532 [13a 3 0 800] ------- [0:0 7:0 31 6] [15] 1 0
r 15.795085949 _6_ RTR  --- 21 cbr 532 [13a 6 3 800] ------- [0:0 7:0 31 6] [15] 2 0
SFf 15.795085949 _6_ 21 [0 -> 7] 1 to 7
f 15.795085949 _6_ RTR  --- 21 cbr 532 [13a 6 3 800] ------- [0:0 7:0 30 7] [15] 2 0
r 15.801359949 _7_ RTR  --- 21 cbr 532 [13a 7 6 800] ------- [0:0 7:0 30 7] [15] 3 0
r 15.801359949 _7_ AGT  --- 21 cbr 512 [13a 7 6 800] ------- [0:0 7:0 30 7] [15] 3 0
s 15.848385971 _0_ AGT  --- 22 cbr 512 [0 0 0 0] ------- [0:0 7:0 32 0] [16] 0 0
r 15.848385971 _0_ RTR  --- 22 cbr 512 [0 0 0 0] ------- [0:0 7:0 32 0] [16] 0 0
SFs 15.848385971 _0_ 22 [0 -> 7] 1(0) to 3 
s 15.848385971 _0_ RTR  --- 22 cbr 532 [0 0 0 0] ------- [0:0 7:0 32 3] [16] 0 0
r 15.854095971 _3_ RTR  --- 22 cbr 532 [13a 3 0 800] ------- [0:0 7:0 32 3] [16] 1 0
SFf 15.854095971 _3_ 22 [0 -> 7] 1 to 6
f 15.854095971 _3_ RTR  --- 22 cbr 532 [13a 3 0 800] ------- [0:0 7:0 31 6] [16] 1 0
r 15.860229971 _6_ RTR  --- 22 cbr 532 [13a 6 3 800] ------- [0:0 7:0 31 6] [16] 2 0
SFf 15.860229971 _6_ 22 [0 -> 7] 1 to 7
f 15.860229971 _6_ RTR  --- 22 cbr 532 [13a 6 3 800] ------- [0:0 7:0 30 7] [16] 2 0
r 15.866483971 _7_ RTR  --- 22 cbr 532 [13a 7 6 800] ------- [0:0 7:0 30 7] [16] 3 0
r 15.866483971 _7_ AGT  --- 22 cbr 512 [13a 7 6 800] ------- [0:0 7:0 30 7] [16] 3 0
s 15.888602316 _0_ AGT  --- 23 cbr 512 [0 0 0 0] ------- [0:0 7:0 32 0] [17] 0 0
r 15.888602316 _0_ RTR  --- 23 cbr 512 [0 0 0 0] ------- [0:0 7:0 32 0] [17] 0 0
SFs 15.888602316 _0_ 23 [0 -> 7] 1(0) to 3 
s 15.888602316 _0_ RTR  --- 23 cbr 532 [0 0 0 0] ------- [0:0 7:0 32 3] [17] 0 0
r 15.894572316 _3_ RTR  --- 23 cbr 532 [13a 3 0 800] ------- [0:0 7:0 32 3] [17] 1 0
SFf 15.894572316 _3_ 23 [0 -> 7] 1 to 6
f 15.894572316 _3_ RTR  --- 23 cbr 532 [13a 3 0 800] ------- [0:0 7:0 31 6] [17] 1 0
r 15.900486316 _6_ RTR  --- 23 cbr 532 [13a 6 3 800] ------- [0:0 7:0 31 6] [17] 2 0
SFf 15.900486316 _6_ 23 [0 -> 7] 1 to 7
f 15.900486316 _6_ RTR  --- 23 cbr 532 [13a 6 3 800] ------- [0:0 7:0 30 7] [17] 2 0
r 15.906800316 _7_ RTR  --- 23 cbr 532 [13a 7 6 800] ------- [0:0 7:0 30 7] [17] 3 0
r 15.906800316 _7_ AGT  --- 23 cbr 512 [13a 7 6 800] ------- [0:0 7:0 30 7] [17] 3 0
s 15.932837477 _0_ AGT  --- 24 cbr 512 [0 0 0 0] ------- [0:0 7:0 32 0] [18] 0 0
r 15.932837477 _0_ RTR  --- 24 cbr 512 [0 0 0 0] ------- [0:0 7:0 32 0] [18] 0 0
SFs 15.932837477 _0_ 24 [0 -> 7] 1(0) to 3 
s 15.932837477 _0_ RTR  --- 24 cbr 532 [0 0 0 0] ------- [0:0 7:0 32 3] [18] 0 0
r 15.938407477 _3_ RTR  --- 24 cbr 532 [13a 3 0 800] ------- [0:0 7:0 32 3] [18] 1 0
SFf 15.938407477 _3_ 24 [0 -> 7] 1 to 6
f 15.938407477 _3_ RTR  --- 24 cbr 532 [13a 3 0 800] ------- [0:0 7:0 31 6] [18] 1 0
r 15.944201477 _6_ RTR  --- 24 cbr 532 [13a 6 3 800] ------- [0:0 7:0 31 6] [18] 2 0
SFf 15.944201477 _6_ 24 [0 -> 7] 1 to 7
f 15.944201477 _6_ RTR  --- 24 cbr 532 [13a 6 3 800] ------- [0:0 7:0 30 7] [18] 2 0
r 15.950015477 _7_ RTR  --- 24 cbr 532 [13a 7 6 800] ------- [0:0 7:0 30 7] [18] 3 0
r 15.950015477 _7_ AGT  --- 24 cbr 512 [13a 7 6 800] ------- [0:0 7:0 30 7] [18] 3 0
s 15.983011178 _0_ AGT  --- 25 cbr 512 [0 0 0 0] ------- [0:0 7:0 32 0] [19] 0 0
r 15.983011178 _0_ RTR  --- 25 cbr 512 [0 0 0 0] ------- [0:0 7:0 32 0] [19] 0 0
SFs 15.983011178 _0_ 25 [0 -> 7] 1(0) to 3 
s 15.983011178 _0_ RTR  --- 25 cbr 532 [0 0 0 0] ------- [0:0 7:0 32 3] [19] 0 0
r 15.988581178 _3_ RTR  --- 25 cbr 532 [13a 3 0 800] ------- [0:0 7:0 32 3] [19] 1 0
SFf 15.988581178 _3_ 25 [0 -> 7] 1 to 6
f 15.988581178 _3_ RTR  --- 25 cbr 532 [13a 3 0 800] ------- [0:0 7:0 31 6] [19] 1 0
r 15.994895178 _6_ RTR  --- 25 cbr 532 [13a 6 3 800] ------- [0:0 7:0 31 6] [19] 2 0
SFf 15.994895178 _6_ 25 [0 -> 7] 1 to 7
f 15.994895178 _6_ RTR  --- 25 cbr 532 [13a 6 3 800] ------- [0:0 7:0 30 7] [19] 2 0
r 16.001209178 _7_ RTR  --- 25 cbr 532 [13a 7 6 800] ------- [0:0 7:0 30 7] [19] 3 0
r 16.001209178 _7_ AGT  --- 25 cbr 512 [13a 7 6 800] ------- [0:0 7:0 30 7] [19] 3 0
s 16.050417037 _0_ AGT  --- 26 cbr 512 [0 0 0 0] ------- [0:0 7:0 32 0] [20] 0 0
r 16.050417037 _0_ RTR  --- 26 cbr 512 [0 0 0 0] ------- [0:0 7:0 32 0] [20] 0 0
SFs 16.050417037 _0_ 26 [0 -> 7] 1(0) to 3 
s 16.050417037 _0_ RTR  --- 26 cbr 532 [0 0 0 0] ------- [0:0 7:0 32 3] [20] 0 0
r 16.056087037 _3_ RTR  --- 26 cbr 532 [13a 3 0 800] ------- [0:0 7:0 32 3] [20] 1 0
SFf 16.056087037 _3_ 26 [0 -> 7] 1 to 6
f 16.056087037 _3_ RTR  --- 26 cbr 532 [13a 3 0 800] ------- [0:0 7:0 31 6] [20] 1 0
r 16.061821037 _6_ RTR  --- 26 cbr 532 [13a 6 3 800] ------- [0:0 7:0 31 6] [20] 2 0
SFf 16.061821037 _6_ 26 [0 -> 7] 1 to 7
f 16.061821037 _6_ RTR  --- 26 cbr 532 [13a 6 3 800] ------- [0:0 7:0 30 7] [20] 2 0
r 16.067775037 _7_ RTR  --- 26 cbr 532 [13a 7 6 800] ------- [0:0 7:0 30 7] [20] 3 0
r 16.067775037 _7_ AGT  --- 26 cbr 512 [13a 7 6 800] ------- [0:0 7:0 30 7] [20] 3 0
s 16.103733666 _0_ AGT  --- 27 cbr 512 [0 0 0 0] ------- [0:0 7:0 32 0] [21] 0 0
r 16.103733666 _0_ RTR  --- 27 cbr 512 [0 0 0 0] ------- [0:0 7:0 32 0] [21] 0 0
SFs 16.103733666 _0_ 27 [0 -> 7] 1(0) to 3 
s 16.103733666 _0_ RTR  --- 27 cbr 532 [0 0 0 0] ------- [0:0 7:0 32 3] [21] 0 0
r 16.109483666 _3_ RTR  --- 27 cbr 532 [13a 3 0 800] ------- [0:0 7:0 32 3] [21] 1 0
SFf 16.109483666 _3_ 27 [0 -> 7] 1 to 6
f 16.109483666 _3_ RTR  --- 27 cbr 532 [13a 3 0 800] ------- [0:0 7:0 31 6] [21] 1 0
r 16.115297666 _6_ RTR  --- 27 cbr 532 [13a 6 3 800] ------- [0:0 7:0 31 6] [21] 2 0
SFf 16.115297666 _6_ 27 [0 -> 7] 1 to 7
f 16.115297666 _6_ RTR  --- 27 cbr 532 [13a 6 3 800] ------- [0:0 7:0 30 7] [21] 2 0
r 16.121351666 _7_ RTR  --- 27 cbr 532 [13a 7 6 800] ------- [0:0 7:0 30 7] [21] 3 0
r 16.121351666 _7_ AGT  --- 27 cbr 512 [13a 7 6 800] ------- [0:0 7:0 30 7] [21] 3 0
s 16.133791713 _0_ AGT  --- 28 cbr 512 [0 0 0 0] ------- [0:0 7:0 32 0] [22] 0 0
r 16.133791713 _0_ RTR  --- 28 cbr 512 [0 0 0 0] ------- [0:0 7:0 32 0] [22] 0 0
SFs 16.133791713 _0_ 28 [0 -> 7] 1(0) to 3 
s 16.133791713 _0_ RTR  --- 28 cbr 532 [0 0 0 0] ------- [0:0 7:0 32 3] [22] 0 0
r 16.139281713 _3_ RTR  --- 28 cbr 532 [13a 3 0 800] ------- [0:0 7:0 32 3] [22] 1 0
SFf 16.139281713 _3_ 28 [0 -> 7] 1 to 6
f 16.139281713 _3_ RTR  --- 28 cbr 532 [13a 3 0 800] ------- [0:0 7:0 31 6] [22] 1 0
r 16.145055713 _6_ RTR  --- 28 cbr 532 [13a 6 3 800] ------- [0:0 7:0 31 6] [22] 2 0
SFf 16.145055713 _6_ 28 [0 -> 7] 1 to 7
f 16.145055713 _6_ RTR  --- 28 cbr 532 [13a 6 3 800] ------- [0:0 7:0 30 7] [22] 2 0
r 16.150789713 _7_ RTR  --- 28 cbr 532 [13a 7 6 800] ------- [0:0 7:0 30 7] [22] 3 0
r 16.150789713 _7_ AGT  --- 28 cbr 512 [13a 7 6 800] ------- [0:0 7:0 30 7] [22] 3 0
s 16.183609346 _0_ AGT  --- 29 cbr 512 [0 0 0 0] ------- [0:0 7:0 32 0] [23] 0 0
r 16.183609346 _0_ RTR  --- 29 cbr 512 [0 0 0 0] ------- [0:0 7:0 32 0] [23] 0 0
SFs 16.183609346 _0_ 29 [0 -> 7] 1(0) to 3 
s 16.183609346 _0_ RTR  --- 29 cbr 532 [0 0 0 0] ------- [0:0 7:0 32 3] [23] 0 0
r 16.189499346 _3_ RTR  --- 29 cbr 532 [13a 3 0 800] ------- [0:0 7:0 32 3] [23] 1 0
SFf 16.189499346 _3_ 29 [0 -> 7] 1 to 6
f 16.189499346 _3_ RTR  --- 29 cbr 532 [13a 3 0 800] ------- [0:0 7:0 31 6] [23] 1 0
r 16.195713346 _6_ RTR  --- 29 cbr 532 [13a 6 3 800] ------- [0:0 7:0 31 6] [23] 2 0
SFf 16.195713346 _6_ 29 [0 -> 7] 1 to 7
f 16.195713346 _6_ RTR  --- 29 cbr 532 [13a 6 3 800] ------- [0:0 7:0 30 7] [23] 2 0
r 16.201827346 _7_ RTR  --- 29 cbr 532 [13a 7 6 800] ------- [0:0 7:0 30 7] [23] 3 0
r 16.201827346 _7_ AGT  --- 29 cbr 512 [13a 7 6 800] ------- [0:0 7:0 30 7] [23] 3 0
s 16.226316796 _0_ AGT  --- 30 cbr 512 [0 0 0 0] ------- [0:0 7:0 32 0] [24] 0 0
r 16.226316796 _0_ RTR  --- 30 cbr 512 [0 0 0 0] ------- [0:0 7:0 32 0] [24] 0 0
SFs 16.226316796 _0_ 30 [0 -> 7] 1(0) to 3 
s 16.226316796 _0_ RTR  --- 30 cbr 532 [0 0 0 0] ------- [0:0 7:0 32 3] [24] 0 0
r 16.231986796 _3_ RTR  --- 30 cbr 532 [13a 3 0 800] ------- [0:0 7:0 32 3] [24] 1 0
SFf 16.231986796 _3_ 30 [0 -> 7] 1 to 6
f 16.231986796 _3_ RTR  --- 30 cbr 532 [13a 3 0 800] ------- [0:0 7:0 31 6] [24] 1 0
r 16.237740796 _6_ RTR  --- 30 cbr 532 [13a 6 3 800] ------- [0:0 7:0 31 6] [24] 2 0
SFf 16.237740796 _6_ 30 [0 -> 7] 1 to 7
f 16.237740796 _6_ RTR  --- 30 cbr 532 [13a 6 3 800] ------- [0:0 7:0 30 7] [24] 2 0
r 16.244054796 _7_ RTR  --- 30 cbr 532 [13a 7 6 800] ------- [0:0 7:0 30 7] [24] 3 0
r 16.244054796 _7_ AGT  --- 30 cbr 512 [13a 7 6 800] ------- [0:0 7:0 30 7] [24] 3 0
s 16.267218002 _0_ AGT  --- 31 cbr 512 [0 0 0 0] ------- [0:0 7:0 32 0] [25] 0 0
r 16.267218002 _0_ RTR  --- 31 cbr 512 [0 0 0 0] ------- [0:0 7:0 32 0] [25] 0 0
SFs 16.267218002 _0_ 31 [0 -> 7] 1(0) to 3 
s 16.267218002 _0_ RTR  --- 31 cbr 532 [0 0 0 0] ------- [0:0 7:0 32 3] [25] 0 0
r 16.272968002 _3_ RTR  --- 31 cbr 532 [13a 3 0 800] ------- [0:0 7:0 32 3] [25] 1 0
SFf 16.272968002 _3_ 31 [0 -> 7] 1 to 6
f 16.272968002 _3_ RTR  --- 31 cbr 532 [13a 3 0 800] ------- [0:0 7:0 31 6] [25] 1 0
r 16.279042002 _6_ RTR  --- 31 cbr 532 [13a 6 3 800] ------- [0:0 7:0 31 6] [25] 2 0
SFf 16.279042002 _6_ 31 [0 -> 7] 1 to 7
f 16.279042002 _6_ RTR  --- 31 cbr 532 [13a 6 3 800] ------- [0:0 7:0 30 7] [25] 2 0
r 16.284996002 _7_ RTR  --- 31 cbr 532 [13a 7 6 800] ------- [0:0 7:0 30 7] [25] 3 0
r 16.284996002 _7_ AGT  --- 31 cbr 512 [13a 7 6 800] ------- [0:0 7:0 30 7] [25] 3 0
s 16.298653262 _0_ AGT  --- 32 cbr 512 [0 0 0 0] ------- [0:0 7:0 32 0] [26] 0 0
r 16.298653262 _0_ RTR  --- 32 cbr 512 [0 0 0 0] ------- [0:0 7:0 32 0] [26] 0 0
SFs 16.298653262 _0_ 32 [0 -> 7] 1(0) to 3 
s 16.298653262 _0_ RTR  --- 32 cbr 532 [0 0 0 0] ------- [0:0 7:0 32 3] [26] 0 0
r 16.304423262 _3_ RTR  --- 32 cbr 532 [13a 3 0 800] ------- [0:0 7:0 32 3] [26] 1 0
SFf 16.304423262 _3_ 32 [0 -> 7] 1 to 6
f 16.304423262 _3_ RTR  --- 32 cbr 532 [13a 3 0 800] ------- [0:0 7:0 31 6] [26] 1 0
r 16.310677262 _6_ RTR  --- 32 cbr 532 [13a 6 3 800] ------- [0:0 7:0 31 6] [26] 2 0
SFf 16.310677262 _6_ 32 [0 -> 7] 1 to 7
f 16.310677262 _6_ RTR  --- 32 cbr 532 [13a 6 3 800] ------- [0:0 7:0 30 7] [26] 2 0
r 16.316791262 _7_ RTR  --- 32 cbr 532 [13a 7 6 800] ------- [0:0 7:0 30 7] [26] 3 0
r 16.316791262 _7_ AGT  --- 32 cbr 512 [13a 7 6 800] ------- [0:0 7:0 30 7] [26] 3 0