n -t * -s 0  -x 100 -y 100 -Z 0 -z 30  -v circle -c black
n -t * -s 1  -x 300 -y 100 -Z 0 -z 30  -v circle -c black
n -t * -s 2  -x 500 -y 100 -Z 0 -z 30  -v circle -c black
n -t * -s 3  -x 100 -y 300 -Z 0 -z 30  -v circle -c black
n -t * -s 4  -x 300 -y 300 -Z 0 -z 30  -v circle -c black
n -t * -s 5  -x 500 -y 300 -Z 0 -z 30  -v circle -c black
n -t * -s 6  -x 100 -y 500 -Z 0 -z 30  -v circle -c black
n -t * -s 7  -x 300 -y 500 -Z 0 -z 30  -v circle -c black
n -t * -s 8  -x 500 -y 500 -Z 0 -z 30  -v circle -c black
n -t * -s 9  -x 500 -y 200 -Z 0 -z 30  -v circle -c black
V -t * -v 1.0a5 -a 0
W -t * -x 500 -y 500
A -t * -n 1 -p 0 -o 0xffffffff -c 31 -a 1
A -t * -h 1 -m 2147483647 -s 0
+ -t 15.000000000 -s 0 -d -1 -p cbr -e 512 -c 2 -a 0 -i 0 -k AGT 
- -t 15.000000000 -s 0 -d -1 -p cbr -e 512 -c 2 -a 0 -i 0 -k AGT
h -t 15.000000000 -s 0 -d -1 -p cbr -e 512 -c 2 -a 0 -i 0 -k AGT
+ -t 15.007717238 -s 0 -d -1 -p DSR -e 32 -c 2 -a 0 -i 1 -k RTR 
- -t 15.007717238 -s 0 -d -1 -p DSR -e 32 -c 2 -a 0 -i 1 -k RTR
h -t 15.007717238 -s 0 -d -1 -p DSR -e 32 -c 2 -a 0 -i 1 -k RTR
+ -t 15.056952203 -s 0 -d -1 -p cbr -e 512 -c 2 -a 0 -i 3 -k AGT 
- -t 15.056952203 -s 0 -d -1 -p cbr -e 512 -c 2 -a 0 -i 3 -k AGT
h -t 15.056952203 -s 0 -d -1 -p cbr -e 512 -c 2 -a 0 -i 3 -k AGT
+ -t 15.057794925 -s 0 -d -1 -p DSR -e 32 -c 2 -a 0 -i 4 -k RTR 
- -t 15.057794925 -s 0 -d -1 -p DSR -e 32 -c 2 -a 0 -i 4 -k RTR
h -t 15.057794925 -s 0 -d -1 -p DSR -e 32 -c 2 -a 0 -i 4 -k RTR
+ -t 15.061588581 -s 3 -d -1 -p DSR -e 48 -c 2 -a 0 -i 4 -k RTR 
- -t 15.061588581 -s 3 -d -1 -p DSR -e 48 -c 2 -a 0 -i 4 -k RTR
h -t 15.061588581 -s 3 -d -1 -p DSR -e 48 -c 2 -a 0 -i 4 -k RTR
+ -t 15.061943224 -s 1 -d -1 -p DSR -e 48 -c 2 -a 0 -i 4 -k RTR 
- -t 15.061943224 -s 1 -d -1 -p DSR -e 48 -c 2 -a 0 -i 4 -k RTR
h -t 15.061943224 -s 1 -d -1 -p DSR -e 48 -c 2 -a 0 -i 4 -k RTR
+ -t 15.069966514 -s 9 -d -1 -p DSR -e 68 -c 2 -a 0 -i 4 -k RTR 
- -t 15.069966514 -s 9 -d -1 -p DSR -e 68 -c 2 -a 0 -i 4 -k RTR
h -t 15.069966514 -s 9 -d -1 -p DSR -e 68 -c 2 -a 0 -i 4 -k RTR
+ -t 15.070161000 -s 6 -d -1 -p DSR -e 68 -c 2 -a 0 -i 4 -k RTR 
- -t 15.070161000 -s 6 -d -1 -p DSR -e 68 -c 2 -a 0 -i 4 -k RTR
h -t 15.070161000 -s 6 -d -1 -p DSR -e 68 -c 2 -a 0 -i 4 -k RTR
+ -t 15.072207354 -s 4 -d -1 -p DSR -e 68 -c 2 -a 0 -i 4 -k RTR 
- -t 15.072207354 -s 4 -d -1 -p DSR -e 68 -c 2 -a 0 -i 4 -k RTR
h -t 15.072207354 -s 4 -d -1 -p DSR -e 68 -c 2 -a 0 -i 4 -k RTR
+ -t 15.073634767 -s 2 -d -1 -p DSR -e 68 -c 2 -a 0 -i 4 -k RTR 
- -t 15.073634767 -s 2 -d -1 -p DSR -e 68 -c 2 -a 0 -i 4 -k RTR
h -t 15.073634767 -s 2 -d -1 -p DSR -e 68 -c 2 -a 0 -i 4 -k RTR
+ -t 15.074844845 -s 7 -d 6 -p DSR -e 60 -c 2 -a 0 -i 5 -k RTR 
- -t 15.074844845 -s 7 -d 6 -p DSR -e 60 -c 2 -a 0 -i 5 -k RTR
h -t 15.074844845 -s 7 -d 6 -p DSR -e 60 -c 2 -a 0 -i 5 -k RTR
+ -t 15.075440012 -s 5 -d -1 -p DSR -e 92 -c 2 -a 0 -i 4 -k RTR 
- -t 15.075440012 -s 5 -d -1 -p DSR -e 92 -c 2 -a 0 -i 4 -k RTR
h -t 15.075440012 -s 5 -d -1 -p DSR -e 92 -c 2 -a 0 -i 4 -k RTR
+ -t 15.076678845 -s 6 -d 3 -p DSR -e 60 -c 2 -a 0 -i 5 -k RTR 
- -t 15.076678845 -s 6 -d 3 -p DSR -e 60 -c 2 -a 0 -i 5 -k RTR
h -t 15.076678845 -s 6 -d 3 -p DSR -e 60 -c 2 -a 0 -i 5 -k RTR
+ -t 15.080636845 -s 3 -d 0 -p DSR -e 60 -c 2 -a 0 -i 5 -k RTR 
- -t 15.080636845 -s 3 -d 0 -p DSR -e 60 -c 2 -a 0 -i 5 -k RTR
h -t 15.080636845 -s 3 -d 0 -p DSR -e 60 -c 2 -a 0 -i 5 -k RTR
+ -t 15.082694845 -s 0 -d 3 -p cbr -e 556 -c 2 -a 0 -i 0 -k RTR 
- -t 15.082694845 -s 0 -d 3 -p cbr -e 556 -c 2 -a 0 -i 0 -k RTR
h -t 15.082694845 -s 0 -d 3 -p cbr -e 556 -c 2 -a 0 -i 0 -k RTR
+ -t 15.083787134 -s 7 -d 4 -p DSR -e 60 -c 2 -a 0 -i 6 -k RTR 
- -t 15.083787134 -s 7 -d 4 -p DSR -e 60 -c 2 -a 0 -i 6 -k RTR
h -t 15.083787134 -s 7 -d 4 -p DSR -e 60 -c 2 -a 0 -i 6 -k RTR
+ -t 15.089020845 -s 3 -d 6 -p cbr -e 556 -c 2 -a 0 -i 0 -k RTR 
- -t 15.089020845 -s 3 -d 6 -p cbr -e 556 -c 2 -a 0 -i 0 -k RTR
h -t 15.089020845 -s 3 -d 6 -p cbr -e 556 -c 2 -a 0 -i 0 -k RTR
+ -t 15.092282593 -s 0 -d -1 -p cbr -e 512 -c 2 -a 0 -i 7 -k AGT 
- -t 15.092282593 -s 0 -d -1 -p cbr -e 512 -c 2 -a 0 -i 7 -k AGT
h -t 15.092282593 -s 0 -d -1 -p cbr -e 512 -c 2 -a 0 -i 7 -k AGT
+ -t 15.092282593 -s 0 -d 3 -p cbr -e 556 -c 2 -a 0 -i 7 -k RTR 
- -t 15.092282593 -s 0 -d 3 -p cbr -e 556 -c 2 -a 0 -i 7 -k RTR
h -t 15.092282593 -s 0 -d 3 -p cbr -e 556 -c 2 -a 0 -i 7 -k RTR
+ -t 15.094946845 -s 6 -d 7 -p cbr -e 556 -c 2 -a 0 -i 0 -k RTR 
- -t 15.094946845 -s 6 -d 7 -p cbr -e 556 -c 2 -a 0 -i 0 -k RTR
h -t 15.094946845 -s 6 -d 7 -p cbr -e 556 -c 2 -a 0 -i 0 -k RTR
+ -t 15.097175121 -s 4 -d 3 -p DSR -e 60 -c 2 -a 0 -i 6 -k RTR 
- -t 15.097175121 -s 4 -d 3 -p DSR -e 60 -c 2 -a 0 -i 6 -k RTR
h -t 15.097175121 -s 4 -d 3 -p DSR -e 60 -c 2 -a 0 -i 6 -k RTR
+ -t 15.099133121 -s 3 -d 0 -p DSR -e 60 -c 2 -a 0 -i 6 -k RTR 
- -t 15.099133121 -s 3 -d 0 -p DSR -e 60 -c 2 -a 0 -i 6 -k RTR
h -t 15.099133121 -s 3 -d 0 -p DSR -e 60 -c 2 -a 0 -i 6 -k RTR
+ -t 15.107377121 -s 3 -d 6 -p cbr -e 556 -c 2 -a 0 -i 7 -k RTR 
- -t 15.107377121 -s 3 -d 6 -p cbr -e 556 -c 2 -a 0 -i 7 -k RTR
h -t 15.107377121 -s 3 -d 6 -p cbr -e 556 -c 2 -a 0 -i 7 -k RTR
+ -t 15.112694845 -s 0 -d 3 -p cbr -e 556 -c 2 -a 0 -i 3 -k RTR 
- -t 15.112694845 -s 0 -d 3 -p cbr -e 556 -c 2 -a 0 -i 3 -k RTR
h -t 15.112694845 -s 0 -d 3 -p cbr -e 556 -c 2 -a 0 -i 3 -k RTR
+ -t 15.113463121 -s 6 -d 7 -p cbr -e 556 -c 2 -a 0 -i 7 -k RTR 
- -t 15.113463121 -s 6 -d 7 -p cbr -e 556 -c 2 -a 0 -i 7 -k RTR
h -t 15.113463121 -s 6 -d 7 -p cbr -e 556 -c 2 -a 0 -i 7 -k RTR
r -t 15.119449121 -s 7 -d 7 -p cbr -e 512 -c 2 -a 0 -i 0 -k AGT
r -t 15.125635787 -s 7 -d 7 -p cbr -e 512 -c 2 -a 0 -i 7 -k AGT
+ -t 15.131967278 -s 3 -d 6 -p cbr -e 556 -c 2 -a 0 -i 3 -k RTR 
- -t 15.131967278 -s 3 -d 6 -p cbr -e 556 -c 2 -a 0 -i 3 -k RTR
h -t 15.131967278 -s 3 -d 6 -p cbr -e 556 -c 2 -a 0 -i 3 -k RTR
+ -t 15.138153278 -s 6 -d 7 -p cbr -e 556 -c 2 -a 0 -i 3 -k RTR 
- -t 15.138153278 -s 6 -d 7 -p cbr -e 556 -c 2 -a 0 -i 3 -k RTR
h -t 15.138153278 -s 6 -d 7 -p cbr -e 556 -c 2 -a 0 -i 3 -k RTR
+ -t 15.140095435 -s 8 -d 5 -p DSR -e 72 -c 2 -a 0 -i 8 -k RTR 
- -t 15.140095435 -s 8 -d 5 -p DSR -e 72 -c 2 -a 0 -i 8 -k RTR
h -t 15.140095435 -s 8 -d 5 -p DSR -e 72 -c 2 -a 0 -i 8 -k RTR
+ -t 15.144544399 -s 0 -d -1 -p cbr -e 512 -c 2 -a 0 -i 9 -k AGT 
- -t 15.144544399 -s 0 -d -1 -p cbr -e 512 -c 2 -a 0 -i 9 -k AGT
h -t 15.144544399 -s 0 -d -1 -p cbr -e 512 -c 2 -a 0 -i 9 -k AGT
+ -t 15.144544399 -s 0 -d 3 -p cbr -e 532 -c 2 -a 0 -i 9 -k RTR 
- -t 15.144544399 -s 0 -d 3 -p cbr -e 532 -c 2 -a 0 -i 9 -k RTR
h -t 15.144544399 -s 0 -d 3 -p cbr -e 532 -c 2 -a 0 -i 9 -k RTR
r -t 15.146072260 -s 7 -d 7 -p cbr -e 512 -c 2 -a 0 -i 3 -k AGT
+ -t 15.148296926 -s 5 -d 9 -p DSR -e 72 -c 2 -a 0 -i 8 -k RTR 
- -t 15.148296926 -s 5 -d 9 -p DSR -e 72 -c 2 -a 0 -i 8 -k RTR
h -t 15.148296926 -s 5 -d 9 -p DSR -e 72 -c 2 -a 0 -i 8 -k RTR
+ -t 15.150745574 -s 9 -d 1 -p DSR -e 72 -c 2 -a 0 -i 8 -k RTR 
- -t 15.150745574 -s 9 -d 1 -p DSR -e 72 -c 2 -a 0 -i 8 -k RTR
h -t 15.150745574 -s 9 -d 1 -p DSR -e 72 -c 2 -a 0 -i 8 -k RTR
+ -t 15.153199810 -s 1 -d 0 -p DSR -e 72 -c 2 -a 0 -i 8 -k RTR 
- -t 15.153199810 -s 1 -d 0 -p DSR -e 72 -c 2 -a 0 -i 8 -k RTR
h -t 15.153199810 -s 1 -d 0 -p DSR -e 72 -c 2 -a 0 -i 8 -k RTR
+ -t 15.162067810 -s 3 -d 6 -p cbr -e 532 -c 2 -a 0 -i 9 -k RTR 
- -t 15.162067810 -s 3 -d 6 -p cbr -e 532 -c 2 -a 0 -i 9 -k RTR
h -t 15.162067810 -s 3 -d 6 -p cbr -e 532 -c 2 -a 0 -i 9 -k RTR
+ -t 15.168201810 -s 6 -d 7 -p cbr -e 532 -c 2 -a 0 -i 9 -k RTR 
- -t 15.168201810 -s 6 -d 7 -p cbr -e 532 -c 2 -a 0 -i 9 -k RTR
h -t 15.168201810 -s 6 -d 7 -p cbr -e 532 -c 2 -a 0 -i 9 -k RTR
r -t 15.174455810 -s 7 -d 7 -p cbr -e 512 -c 2 -a 0 -i 9 -k AGT
+ -t 15.197594447 -s 0 -d -1 -p cbr -e 512 -c 2 -a 0 -i 10 -k AGT 
- -t 15.197594447 -s 0 -d -1 -p cbr -e 512 -c 2 -a 0 -i 10 -k AGT
h -t 15.197594447 -s 0 -d -1 -p cbr -e 512 -c 2 -a 0 -i 10 -k AGT
+ -t 15.197594447 -s 0 -d 3 -p cbr -e 532 -c 2 -a 0 -i 10 -k RTR 
- -t 15.197594447 -s 0 -d 3 -p cbr -e 532 -c 2 -a 0 -i 10 -k RTR
h -t 15.197594447 -s 0 -d 3 -p cbr -e 532 -c 2 -a 0 -i 10 -k RTR
+ -t 15.203084447 -s 3 -d 6 -p cbr -e 532 -c 2 -a 0 -i 10 -k RTR 
- -t 15.203084447 -s 3 -d 6 -p cbr -e 532 -c 2 -a 0 -i 10 -k RTR
h -t 15.203084447 -s 3 -d 6 -p cbr -e 532 -c 2 -a 0 -i 10 -k RTR
+ -t 15.209278447 -s 6 -d 7 -p cbr -e 532 -c 2 -a 0 -i 10 -k RTR 
- -t 15.209278447 -s 6 -d 7 -p cbr -e 532 -c 2 -a 0 -i 10 -k RTR
h -t 15.209278447 -s 6 -d 7 -p cbr -e 532 -c 2 -a 0 -i 10 -k RTR
r -t 15.215532447 -s 7 -d 7 -p cbr -e 512 -c 2 -a 0 -i 10 -k AGT
+ -t 15.243526414 -s 0 -d -1 -p cbr -e 512 -c 2 -a 0 -i 11 -k AGT 
- -t 15.243526414 -s 0 -d -1 -p cbr -e 512 -c 2 -a 0 -i 11 -k AGT
h -t 15.243526414 -s 0 -d -1 -p cbr -e 512 -c 2 -a 0 -i 11 -k AGT
+ -t 15.243526414 -s 0 -d 3 -p cbr -e 532 -c 2 -a 0 -i 11 -k RTR 
- -t 15.243526414 -s 0 -d 3 -p cbr -e 532 -c 2 -a 0 -i 11 -k RTR
h -t 15.243526414 -s 0 -d 3 -p cbr -e 532 -c 2 -a 0 -i 11 -k RTR
+ -t 15.249536414 -s 3 -d 6 -p cbr -e 532 -c 2 -a 0 -i 11 -k RTR 
- -t 15.249536414 -s 3 -d 6 -p cbr -e 532 -c 2 -a 0 -i 11 -k RTR
h -t 15.249536414 -s 3 -d 6 -p cbr -e 532 -c 2 -a 0 -i 11 -k RTR
+ -t 15.255390414 -s 6 -d 7 -p cbr -e 532 -c 2 -a 0 -i 11 -k RTR 
- -t 15.255390414 -s 6 -d 7 -p cbr -e 532 -c 2 -a 0 -i 11 -k RTR
h -t 15.255390414 -s 6 -d 7 -p cbr -e 532 -c 2 -a 0 -i 11 -k RTR
r -t 15.261584414 -s 7 -d 7 -p cbr -e 512 -c 2 -a 0 -i 11 -k AGT
+ -t 15.305157042 -s 0 -d -1 -p cbr -e 512 -c 2 -a 0 -i 12 -k AGT 
- -t 15.305157042 -s 0 -d -1 -p cbr -e 512 -c 2 -a 0 -i 12 -k AGT
h -t 15.305157042 -s 0 -d -1 -p cbr -e 512 -c 2 -a 0 -i 12 -k AGT
+ -t 15.305157042 -s 0 -d 3 -p cbr -e 532 -c 2 -a 0 -i 12 -k RTR 
- -t 15.305157042 -s 0 -d 3 -p cbr -e 532 -c 2 -a 0 -i 12 -k RTR
h -t 15.305157042 -s 0 -d 3 -p cbr -e 532 -c 2 -a 0 -i 12 -k RTR
+ -t 15.310847042 -s 3 -d 6 -p cbr -e 532 -c 2 -a 0 -i 12 -k RTR 
- -t 15.310847042 -s 3 -d 6 -p cbr -e 532 -c 2 -a 0 -i 12 -k RTR
h -t 15.310847042 -s 3 -d 6 -p cbr -e 532 -c 2 -a 0 -i 12 -k RTR
+ -t 15.316741042 -s 6 -d 7 -p cbr -e 532 -c 2 -a 0 -i 12 -k RTR 
- -t 15.316741042 -s 6 -d 7 -p cbr -e 532 -c 2 -a 0 -i 12 -k RTR
h -t 15.316741042 -s 6 -d 7 -p cbr -e 532 -c 2 -a 0 -i 12 -k RTR
r -t 15.323015042 -s 7 -d 7 -p cbr -e 512 -c 2 -a 0 -i 12 -k AGT
+ -t 15.345202330 -s 0 -d -1 -p cbr -e 512 -c 2 -a 0 -i 13 -k AGT 
- -t 15.345202330 -s 0 -d -1 -p cbr -e 512 -c 2 -a 0 -i 13 -k AGT
h -t 15.345202330 -s 0 -d -1 -p cbr -e 512 -c 2 -a 0 -i 13 -k AGT
+ -t 15.345202330 -s 0 -d 3 -p cbr -e 532 -c 2 -a 0 -i 13 -k RTR 
- -t 15.345202330 -s 0 -d 3 -p cbr -e 532 -c 2 -a 0 -i 13 -k RTR
h -t 15.345202330 -s 0 -d 3 -p cbr -e 532 -c 2 -a 0 -i 13 -k RTR
+ -t 15.350992330 -s 3 -d 6 -p cbr -e 532 -c 2 -a 0 -i 13 -k RTR 
- -t 15.350992330 -s 3 -d 6 -p cbr -e 532 -c 2 -a 0 -i 13 -k RTR
h -t 15.350992330 -s 3 -d 6 -p cbr -e 532 -c 2 -a 0 -i 13 -k RTR
+ -t 15.356766330 -s 6 -d 7 -p cbr -e 532 -c 2 -a 0 -i 13 -k RTR 
- -t 15.356766330 -s 6 -d 7 -p cbr -e 532 -c 2 -a 0 -i 13 -k RTR
h -t 15.356766330 -s 6 -d 7 -p cbr -e 532 -c 2 -a 0 -i 13 -k RTR
r -t 15.362920330 -s 7 -d 7 -p cbr -e 512 -c 2 -a 0 -i 13 -k AGT
+ -t 15.397810995 -s 0 -d -1 -p cbr -e 512 -c 2 -a 0 -i 14 -k AGT 
- -t 15.397810995 -s 0 -d -1 -p cbr -e 512 -c 2 -a 0 -i 14 -k AGT
h -t 15.397810995 -s 0 -d -1 -p cbr -e 512 -c 2 -a 0 -i 14 -k AGT
+ -t 15.397810995 -s 0 -d 3 -p cbr -e 532 -c 2 -a 0 -i 14 -k RTR 
- -t 15.397810995 -s 0 -d 3 -p cbr -e 532 -c 2 -a 0 -i 14 -k RTR
h -t 15.397810995 -s 0 -d 3 -p cbr -e 532 -c 2 -a 0 -i 14 -k RTR
+ -t 15.403440995 -s 3 -d 6 -p cbr -e 532 -c 2 -a 0 -i 14 -k RTR 
- -t 15.403440995 -s 3 -d 6 -p cbr -e 532 -c 2 -a 0 -i 14 -k RTR
h -t 15.403440995 -s 3 -d 6 -p cbr -e 532 -c 2 -a 0 -i 14 -k RTR
+ -t 15.409654995 -s 6 -d 7 -p cbr -e 532 -c 2 -a 0 -i 14 -k RTR 
- -t 15.409654995 -s 6 -d 7 -p cbr -e 532 -c 2 -a 0 -i 14 -k RTR
h -t 15.409654995 -s 6 -d 7 -p cbr -e 532 -c 2 -a 0 -i 14 -k RTR
r -t 15.415748995 -s 7 -d 7 -p cbr -e 512 -c 2 -a 0 -i 14 -k AGT
+ -t 15.422842765 -s 0 -d -1 -p cbr -e 512 -c 2 -a 0 -i 15 -k AGT 
- -t 15.422842765 -s 0 -d -1 -p cbr -e 512 -c 2 -a 0 -i 15 -k AGT
h -t 15.422842765 -s 0 -d -1 -p cbr -e 512 -c 2 -a 0 -i 15 -k AGT
+ -t 15.422842765 -s 0 -d 3 -p cbr -e 532 -c 2 -a 0 -i 15 -k RTR 
- -t 15.422842765 -s 0 -d 3 -p cbr -e 532 -c 2 -a 0 -i 15 -k RTR
h -t 15.422842765 -s 0 -d 3 -p cbr -e 532 -c 2 -a 0 -i 15 -k RTR
+ -t 15.428872765 -s 3 -d 6 -p cbr -e 532 -c 2 -a 0 -i 15 -k RTR 
- -t 15.428872765 -s 3 -d 6 -p cbr -e 532 -c 2 -a 0 -i 15 -k RTR
h -t 15.428872765 -s 3 -d 6 -p cbr -e 532 -c 2 -a 0 -i 15 -k RTR
+ -t 15.434626765 -s 6 -d 7 -p cbr -e 532 -c 2 -a 0 -i 15 -k RTR 
- -t 15.434626765 -s 6 -d 7 -p cbr -e 532 -c 2 -a 0 -i 15 -k RTR
h -t 15.434626765 -s 6 -d 7 -p cbr -e 532 -c 2 -a 0 -i 15 -k RTR
r -t 15.440560765 -s 7 -d 7 -p cbr -e 512 -c 2 -a 0 -i 15 -k AGT
+ -t 15.481811233 -s 0 -d -1 -p cbr -e 512 -c 2 -a 0 -i 16 -k AGT 
- -t 15.481811233 -s 0 -d -1 -p cbr -e 512 -c 2 -a 0 -i 16 -k AGT
h -t 15.481811233 -s 0 -d -1 -p cbr -e 512 -c 2 -a 0 -i 16 -k AGT
+ -t 15.481811233 -s 0 -d 3 -p cbr -e 532 -c 2 -a 0 -i 16 -k RTR 
- -t 15.481811233 -s 0 -d 3 -p cbr -e 532 -c 2 -a 0 -i 16 -k RTR
h -t 15.481811233 -s 0 -d 3 -p cbr -e 532 -c 2 -a 0 -i 16 -k RTR
+ -t 15.487641233 -s 3 -d 6 -p cbr -e 532 -c 2 -a 0 -i 16 -k RTR 
- -t 15.487641233 -s 3 -d 6 -p cbr -e 532 -c 2 -a 0 -i 16 -k RTR
h -t 15.487641233 -s 3 -d 6 -p cbr -e 532 -c 2 -a 0 -i 16 -k RTR
+ -t 15.493475233 -s 6 -d 7 -p cbr -e 532 -c 2 -a 0 -i 16 -k RTR 
- -t 15.493475233 -s 6 -d 7 -p cbr -e 532 -c 2 -a 0 -i 16 -k RTR
h -t 15.493475233 -s 6 -d 7 -p cbr -e 532 -c 2 -a 0 -i 16 -k RTR
r -t 15.499389233 -s 7 -d 7 -p cbr -e 512 -c 2 -a 0 -i 16 -k AGT
+ -t 15.528950267 -s 0 -d -1 -p cbr -e 512 -c 2 -a 0 -i 17 -k AGT 
- -t 15.528950267 -s 0 -d -1 -p cbr -e 512 -c 2 -a 0 -i 17 -k AGT
h -t 15.528950267 -s 0 -d -1 -p cbr -e 512 -c 2 -a 0 -i 17 -k AGT
+ -t 15.528950267 -s 0 -d 3 -p cbr -e 532 -c 2 -a 0 -i 17 -k RTR 
- -t 15.528950267 -s 0 -d 3 -p cbr -e 532 -c 2 -a 0 -i 17 -k RTR
h -t 15.528950267 -s 0 -d 3 -p cbr -e 532 -c 2 -a 0 -i 17 -k RTR
+ -t 15.534600267 -s 3 -d 6 -p cbr -e 532 -c 2 -a 0 -i 17 -k RTR 
- -t 15.534600267 -s 3 -d 6 -p cbr -e 532 -c 2 -a 0 -i 17 -k RTR
h -t 15.534600267 -s 3 -d 6 -p cbr -e 532 -c 2 -a 0 -i 17 -k RTR
+ -t 15.540874267 -s 6 -d 7 -p cbr -e 532 -c 2 -a 0 -i 17 -k RTR 
- -t 15.540874267 -s 6 -d 7 -p cbr -e 532 -c 2 -a 0 -i 17 -k RTR
h -t 15.540874267 -s 6 -d 7 -p cbr -e 532 -c 2 -a 0 -i 17 -k RTR
r -t 15.546788267 -s 7 -d 7 -p cbr -e 512 -c 2 -a 0 -i 17 -k AGT
+ -t 15.591817245 -s 0 -d -1 -p cbr -e 512 -c 2 -a 0 -i 18 -k AGT 
- -t 15.591817245 -s 0 -d -1 -p cbr -e 512 -c 2 -a 0 -i 18 -k AGT
h -t 15.591817245 -s 0 -d -1 -p cbr -e 512 -c 2 -a 0 -i 18 -k AGT
+ -t 15.591817245 -s 0 -d 3 -p cbr -e 532 -c 2 -a 0 -i 18 -k RTR 
- -t 15.591817245 -s 0 -d 3 -p cbr -e 532 -c 2 -a 0 -i 18 -k RTR
h -t 15.591817245 -s 0 -d 3 -p cbr -e 532 -c 2 -a 0 -i 18 -k RTR
+ -t 15.597347245 -s 3 -d 6 -p cbr -e 532 -c 2 -a 0 -i 18 -k RTR 
- -t 15.597347245 -s 3 -d 6 -p cbr -e 532 -c 2 -a 0 -i 18 -k RTR
h -t 15.597347245 -s 3 -d 6 -p cbr -e 532 -c 2 -a 0 -i 18 -k RTR
+ -t 15.603661245 -s 6 -d 7 -p cbr -e 532 -c 2 -a 0 -i 18 -k RTR 
- -t 15.603661245 -s 6 -d 7 -p cbr -e 532 -c 2 -a 0 -i 18 -k RTR
h -t 15.603661245 -s 6 -d 7 -p cbr -e 532 -c 2 -a 0 -i 18 -k RTR
r -t 15.609435245 -s 7 -d 7 -p cbr -e 512 -c 2 -a 0 -i 18 -k AGT
+ -t 15.665980941 -s 0 -d -1 -p cbr -e 512 -c 2 -a 0 -i 19 -k AGT 
- -t 15.665980941 -s 0 -d -1 -p cbr -e 512 -c 2 -a 0 -i 19 -k AGT
h -t 15.665980941 -s 0 -d -1 -p cbr -e 512 -c 2 -a 0 -i 19 -k AGT
+ -t 15.665980941 -s 0 -d 3 -p cbr -e 532 -c 2 -a 0 -i 19 -k RTR 
- -t 15.665980941 -s 0 -d 3 -p cbr -e 532 -c 2 -a 0 -i 19 -k RTR
h -t 15.665980941 -s 0 -d 3 -p cbr -e 532 -c 2 -a 0 -i 19 -k RTR
+ -t 15.671950941 -s 3 -d 6 -p cbr -e 532 -c 2 -a 0 -i 19 -k RTR 
- -t 15.671950941 -s 3 -d 6 -p cbr -e 532 -c 2 -a 0 -i 19 -k RTR
h -t 15.671950941 -s 3 -d 6 -p cbr -e 532 -c 2 -a 0 -i 19 -k RTR
+ -t 15.677664941 -s 6 -d 7 -p cbr -e 532 -c 2 -a 0 -i 19 -k RTR 
- -t 15.677664941 -s 6 -d 7 -p cbr -e 532 -c 2 -a 0 -i 19 -k RTR
h -t 15.677664941 -s 6 -d 7 -p cbr -e 532 -c 2 -a 0 -i 19 -k RTR
r -t 15.683918941 -s 7 -d 7 -p cbr -e 512 -c 2 -a 0 -i 19 -k AGT
+ -t 15.718784299 -s 0 -d -1 -p cbr -e 512 -c 2 -a 0 -i 20 -k AGT 
- -t 15.718784299 -s 0 -d -1 -p cbr -e 512 -c 2 -a 0 -i 20 -k AGT
h -t 15.718784299 -s 0 -d -1 -p cbr -e 512 -c 2 -a 0 -i 20 -k AGT
+ -t 15.718784299 -s 0 -d 3 -p cbr -e 532 -c 2 -a 0 -i 20 -k RTR 
- -t 15.718784299 -s 0 -d 3 -p cbr -e 532 -c 2 -a 0 -i 20 -k RTR
h -t 15.718784299 -s 0 -d 3 -p cbr -e 532 -c 2 -a 0 -i 20 -k RTR
+ -t 15.724394299 -s 3 -d 6 -p cbr -e 532 -c 2 -a 0 -i 20 -k RTR 
- -t 15.724394299 -s 3 -d 6 -p cbr -e 532 -c 2 -a 0 -i 20 -k RTR
h -t 15.724394299 -s 3 -d 6 -p cbr -e 532 -c 2 -a 0 -i 20 -k RTR
+ -t 15.730248299 -s 6 -d 7 -p cbr -e 532 -c 2 -a 0 -i 20 -k RTR 
- -t 15.730248299 -s 6 -d 7 -p cbr -e 532 -c 2 -a 0 -i 20 -k RTR
h -t 15.730248299 -s 6 -d 7 -p cbr -e 532 -c 2 -a 0 -i 20 -k RTR
r -t 15.736142299 -s 7 -d 7 -p cbr -e 512 -c 2 -a 0 -i 20 -k AGT
+ -t 15.783341949 -s 0 -d -1 -p cbr -e 512 -c 2 -a 0 -i 21 -k AGT 
- -t 15.783341949 -s 0 -d -1 -p cbr -e 512 -c 2 -a 0 -i 21 -k AGT
h -t 15.783341949 -s 0 -d -1 -p cbr -e 512 -c 2 -a 0 -i 21 -k AGT
+ -t 15.783341949 -s 0 -d 3 -p cbr -e 532 -c 2 -a 0 -i 21 -k RTR 
- -t 15.783341949 -s 0 -d 3 -p cbr -e 532 -c 2 -a 0 -i 21 -k RTR
h -t 15.783341949 -s 0 -d 3 -p cbr -e 532 -c 2 -a 0 -i 21 -k RTR
+ -t 15.789031949 -s 3 -d 6 -p cbr -e 532 -c 2 -a 0 -i 21 -k RTR 
- -t 15.789031949 -s 3 -d 6 -p cbr -e 532 -c 2 -a 0 -i 21 -k RTR
h -t 15.789031949 -s 3 -d 6 -p cbr -e 532 -c 2 -a 0 -i 21 -k RTR
+ -t 15.795085949 -s 6 -d 7 -p cbr -e 532 -c 2 -a 0 -i 21 -k RTR 
- -t 15.795085949 -s 6 -d 7 -p cbr -e 532 -c 2 -a 0 -i 21 -k RTR
h -t 15.795085949 -s 6 -d 7 -p cbr -e 532 -c 2 -a 0 -i 21 -k RTR
r -t 15.801359949 -s 7 -d 7 -p cbr -e 512 -c 2 -a 0 -i 21 -k AGT
+ -t 15.848385971 -s 0 -d -1 -p cbr -e 512 -c 2 -a 0 -i 22 -k AGT 
- -t 15.848385971 -s 0 -d -1 -p cbr -e 512 -c 2 -a 0 -i 22 -k AGT
h -t 15.848385971 -s 0 -d -1 -p cbr -e 512 -c 2 -a 0 -i 22 -k AGT
+ -t 15.848385971 -s 0 -d 3 -p cbr -e 532 -c 2 -a 0 -i 22 -k RTR 
- -t 15.848385971 -s 0 -d 3 -p cbr -e 532 -c 2 -a 0 -i 22 -k RTR
h -t 15.848385971 -s 0 -d 3 -p cbr -e 532 -c 2 -a 0 -i 22 -k RTR
+ -t 15.854095971 -s 3 -d 6 -p cbr -e 532 -c 2 -a 0 -i 22 -k RTR 
- -t 15.854095971 -s 3 -d 6 -p cbr -e 532 -c 2 -a 0 -i 22 -k RTR
h -t 15.854095971 -s 3 -d 6 -p cbr -e 532 -c 2 -a 0 -i 22 -k RTR
+ -t 15.860229971 -s 6 -d 7 -p cbr -e 532 -c 2 -a 0 -i 22 -k RTR 
- -t 15.860229971 -s 6 -d 7 -p cbr -e 532 -c 2 -a 0 -i 22 -k RTR
h -t 15.860229971 -s 6 -d 7 -p cbr -e 532 -c 2 -a 0 -i 22 -k RTR
r -t 15.866483971 -s 7 -d 7 -p cbr -e 512 -c 2 -a 0 -i 22 -k AGT
+ -t 15.888602316 -s 0 -d -1 -p cbr -e 512 -c 2 -a 0 -i 23 -k AGT 
- -t 15.888602316 -s 0 -d -1 -p cbr -e 512 -c 2 -a 0 -i 23 -k AGT
h -t 15.888602316 -s 0 -d -1 -p cbr -e 512 -c 2 -a 0 -i 23 -k AGT
+ -t 15.888602316 -s 0 -d 3 -p cbr -e 532 -c 2 -a 0 -i 23 -k RTR 
- -t 15.888602316 -s 0 -d 3 -p cbr -e 532 -c 2 -a 0 -i 23 -k RTR
h -t 15.888602316 -s 0 -d 3 -p cbr -e 532 -c 2 -a 0 -i 23 -k RTR
+ -t 15.894572316 -s 3 -d 6 -p cbr -e 532 -c 2 -a 0 -i 23 -k RTR 
- -t 15.894572316 -s 3 -d 6 -p cbr -e 532 -c 2 -a 0 -i 23 -k RTR
h -t 15.894572316 -s 3 -d 6 -p cbr -e 532 -c 2 -a 0 -i 23 -k RTR
+ -t 15.900486316 -s 6 -d 7 -p cbr -e 532 -c 2 -a 0 -i 23 -k RTR 
- -t 15.900486316 -s 6 -d 7 -p cbr -e 532 -c 2 -a 0 -i 23 -k RTR
h -t 15.900486316 -s 6 -d 7 -p cbr -e 532 -c 2 -a 0 -i 23 -k RTR
r -t 15.906800316 -s 7 -d 7 -p cbr -e 512 -c 2 -a 0 -i 23 -k AGT
+ -t 15.932837477 -s 0 -d -1 -p cbr -e 512 -c 2 -a 0 -i 24 -k AGT 
- -t 15.932837477 -s 0 -d -1 -p cbr -e 512 -c 2 -a 0 -i 24 -k AGT
h -t 15.932837477 -s 0 -d -1 -p cbr -e 512 -c 2 -a 0 -i 24 -k AGT
+ -t 15.932837477 -s 0 -d 3 -p cbr -e 532 -c 2 -a 0 -i 24 -k RTR 
- -t 15.932837477 -s 0 -d 3 -p cbr -e 532 -c 2 -a 0 -i 24 -k RTR
h -t 15.932837477 -s 0 -d 3 -p cbr -e 532 -c 2 -a 0 -i 24 -k RTR
+ -t 15.938407477 -s 3 -d 6 -p cbr -e 532 -c 2 -a 0 -i 24 -k RTR 
- -t 15.938407477 -s 3 -d 6 -p cbr -e 532 -c 2 -a 0 -i 24 -k RTR
h -t 15.938407477 -s 3 -d 6 -p cbr -e 532 -c 2 -a 0 -i 24 -k RTR
+ -t 15.944201477 -s 6 -d 7 -p cbr -e 532 -c 2 -a 0 -i 24 -k RTR 
- -t 15.944201477 -s 6 -d 7 -p cbr -e 532 -c 2 -a 0 -i 24 -k RTR
h -t 15.944201477 -s 6 -d 7 -p cbr -e 532 -c 2 -a 0 -i 24 -k RTR
r -t 15.950015477 -s 7 -d 7 -p cbr -e 512 -c 2 -a 0 -i 24 -k AGT
+ -t 15.983011178 -s 0 -d -1 -p cbr -e 512 -c 2 -a 0 -i 25 -k AGT 
- -t 15.983011178 -s 0 -d -1 -p cbr -e 512 -c 2 -a 0 -i 25 -k AGT
h -t 15.983011178 -s 0 -d -1 -p cbr -e 512 -c 2 -a 0 -i 25 -k AGT
+ -t 15.983011178 -s 0 -d 3 -p cbr -e 532 -c 2 -a 0 -i 25 -k RTR 
- -t 15.983011178 -s 0 -d 3 -p cbr -e 532 -c 2 -a 0 -i 25 -k RTR
h -t 15.983011178 -s 0 -d 3 -p cbr -e 532 -c 2 -a 0 -i 25 -k RTR
+ -t 15.988581178 -s 3 -d 6 -p cbr -e 532 -c 2 -a 0 -i 25 -k RTR 
- -t 15.988581178 -s 3 -d 6 -p cbr -e 532 -c 2 -a 0 -i 25 -k RTR
h -t 15.988581178 -s 3 -d 6 -p cbr -e 532 -c 2 -a 0 -i 25 -k RTR
+ -t 15.994895178 -s 6 -d 7 -p cbr -e 532 -c 2 -a 0 -i 25 -k RTR 
- -t 15.994895178 -s 6 -d 7 -p cbr -e 532 -c 2 -a 0 -i 25 -k RTR
h -t 15.994895178 -s 6 -d 7 -p cbr -e 532 -c 2 -a 0 -i 25 -k RTR
r -t 16.001209178 -s 7 -d 7 -p cbr -e 512 -c 2 -a 0 -i 25 -k AGT
+ -t 16.050417037 -s 0 -d -1 -p cbr -e 512 -c 2 -a 0 -i 26 -k AGT 
- -t 16.050417037 -s 0 -d -1 -p cbr -e 512 -c 2 -a 0 -i 26 -k AGT
h -t 16.050417037 -s 0 -d -1 -p cbr -e 512 -c 2 -a 0 -i 26 -k AGT
+ -t 16.050417037 -s 0 -d 3 -p cbr -e 532 -c 2 -a 0 -i 26 -k RTR 
- -t 16.050417037 -s 0 -d 3 -p cbr -e 532 -c 2 -a 0 -i 26 -k RTR
h -t 16.050417037 -s 0 -d 3 -p cbr -e 532 -c 2 -a 0 -i 26 -k RTR
+ -t 16.056087037 -s 3 -d 6 -p cbr -e 532 -c 2 -a 0 -i 26 -k RTR 
- -t 16.056087037 -s 3 -d 6 -p cbr -e 532 -c 2 -a 0 -i 26 -k RTR
h -t 16.056087037 -s 3 -d 6 -p cbr -e 532 -c 2 -a 0 -i 26 -k RTR
+ -t 16.061821037 -s 6 -d 7 -p cbr -e 532 -c 2 -a 0 -i 26 -k RTR 
- -t 16.061821037 -s 6 -d 7 -p cbr -e 532 -c 2 -a 0 -i 26 -k RTR
h -t 16.061821037 -s 6 -d 7 -p cbr -e 532 -c 2 -a 0 -i 26 -k RTR
r -t 16.067775037 -s 7 -d 7 -p cbr -e 512 -c 2 -a 0 -i 26 -k AGT
+ -t 16.103733666 -s 0 -d -1 -p cbr -e 512 -c 2 -a 0 -i 27 -k AGT 
- -t 16.103733666 -s 0 -d -1 -p cbr -e 512 -c 2 -a 0 -i 27 -k AGT
h -t 16.103733666 -s 0 -d -1 -p cbr -e 512 -c 2 -a 0 -i 27 -k AGT
+ -t 16.103733666 -s 0 -d 3 -p cbr -e 532 -c 2 -a 0 -i 27 -k RTR 
- -t 16.103733666 -s 0 -d 3 -p cbr -e 532 -c 2 -a 0 -i 27 -k RTR
h -t 16.103733666 -s 0 -d 3 -p cbr -e 532 -c 2 -a 0 -i 27 -k RTR
+ -t 16.109483666 -s 3 -d 6 -p cbr -e 532 -c 2 -a 0 -i 27 -k RTR 
- -t 16.109483666 -s 3 -d 6 -p cbr -e 532 -c 2 -a 0 -i 27 -k RTR
h -t 16.109483666 -s 3 -d 6 -p cbr -e 532 -c 2 -a 0 -i 27 -k RTR
+ -t 16.115297666 -s 6 -d 7 -p cbr -e 532 -c 2 -a 0 -i 27 -k RTR 
- -t 16.115297666 -s 6 -d 7 -p cbr -e 532 -c 2 -a 0 -i 27 -k RTR
h -t 16.115297666 -s 6 -d 7 -p cbr -e 532 -c 2 -a 0 -i 27 -k RTR
r -t 16.121351666 -s 7 -d 7 -p cbr -e 512 -c 2 -a 0 -i 27 -k AGT
+ -t 16.133791713 -s 0 -d -1 -p cbr -e 512 -c 2 -a 0 -i 28 -k AGT 
- -t 16.133791713 -s 0 -d -1 -p cbr -e 512 -c 2 -a 0 -i 28 -k AGT
h -t 16.133791713 -s 0 -d -1 -p cbr -e 512 -c 2 -a 0 -i 28 -k AGT
+ -t 16.133791713 -s 0 -d 3 -p cbr -e 532 -c 2 -a 0 -i 28 -k RTR 
- -t 16.133791713 -s 0 -d 3 -p cbr -e 532 -c 2 -a 0 -i 28 -k RTR
h -t 16.133791713 -s 0 -d 3 -p cbr -e 532 -c 2 -a 0 -i 28 -k RTR
+ -t 16.139281713 -s 3 -d 6 -p cbr -e 532 -c 2 -a 0 -i 28 -k RTR 
- -t 16.139281713 -s 3 -d 6 -p cbr -e 532 -c 2 -a 0 -i 28 -k RTR
h -t 16.139281713 -s 3 -d 6 -p cbr -e 532 -c 2 -a 0 -i 28 -k RTR
+ -t 16.145055713 -s 6 -d 7 -p cbr -e 532 -c 2 -a 0 -i 28 -k RTR 
- -t 16.145055713 -s 6 -d 7 -p cbr -e 532 -c 2 -a 0 -i 28 -k RTR
h -t 16.145055713 -s 6 -d 7 -p cbr -e 532 -c 2 -a 0 -i 28 -k RTR
r -t 16.150789713 -s 7 -d 7 -p cbr -e 512 -c 2 -a 0 -i 28 -k AGT
+ -t 16.183609346 -s 0 -d -1 -p cbr -e 512 -c 2 -a 0 -i 29 -k AGT 
- -t 16.183609346 -s 0 -d -1 -p cbr -e 512 -c 2 -a 0 -i 29 -k AGT
h -t 16.183609346 -s 0 -d -1 -p cbr -e 512 -c 2 -a 0 -i 29 -k AGT
+ -t 16.183609346 -s 0 -d 3 -p cbr -e 532 -c 2 -a 0 -i 29 -k RTR 
- -t 16.183609346 -s 0 -d 3 -p cbr -e 532 -c 2 -a 0 -i 29 -k RTR
h -t 16.183609346 -s 0 -d 3 -p cbr -e 532 -c 2 -a 0 -i 29 -k RTR
+ -t 16.189499346 -s 3 -d 6 -p cbr -e 532 -c 2 -a 0 -i 29 -k RTR 
- -t 16.189499346 -s 3 -d 6 -p cbr -e 532 -c 2 -a 0 -i 29 -k RTR
h -t 16.189499346 -s 3 -d 6 -p cbr -e 532 -c 2 -a 0 -i 29 -k RTR
+ -t 16.195713346 -s 6 -d 7 -p cbr -e 532 -c 2 -a 0 -i 29 -k RTR 
- -t 16.195713346 -s 6 -d 7 -p cbr -e 532 -c 2 -a 0 -i 29 -k RTR
h -t 16.195713346 -s 6 -d 7 -p cbr -e 532 -c 2 -a 0 -i 29 -k RTR
r -t 16.201827346 -s 7 -d 7 -p cbr -e 512 -c 2 -a 0 -i 29 -k AGT
+ -t 16.226316796 -s 0 -d -1 -p cbr -e 512 -c 2 -a 0 -i 30 -k AGT 
- -t 16.226316796 -s 0 -d -1 -p cbr -e 512 -c 2 -a 0 -i 30 -k AGT
h -t 16.226316796 -s 0 -d -1 -p cbr -e 512 -c 2 -a 0 -i 30 -k AGT
+ -t 16.226316796 -s 0 -d 3 -p cbr -e 532 -c 2 -a 0 -i 30 -k RTR 
- -t 16.226316796 -s 0 -d 3 -p cbr -e 532 -c 2 -a 0 -i 30 -k RTR
h -t 16.226316796 -s 0 -d 3 -p cbr -e 532 -c 2 -a 0 -i 30 -k RTR
+ -t 16.231986796 -s 3 -d 6 -p cbr -e 532 -c 2 -a 0 -i 30 -k RTR 
- -t 16.231986796 -s 3 -d 6 -p cbr -e 532 -c 2 -a 0 -i 30 -k RTR
h -t 16.231986796 -s 3 -d 6 -p cbr -e 532 -c 2 -a 0 -i 30 -k RTR
+ -t 16.237740796 -s 6 -d 7 -p cbr -e 532 -c 2 -a 0 -i 30 -k RTR 
- -t 16.237740796 -s 6 -d 7 -p cbr -e 532 -c 2 -a 0 -i 30 -k RTR
h -t 16.237740796 -s 6 -d 7 -p cbr -e 532 -c 2 -a 0 -i 30 -k RTR
r -t 16.244054796 -s 7 -d 7 -p cbr -e 512 -c 2 -a 0 -i 30 -k AGT
+ -t 16.267218002 -s 0 -d -1 -p cbr -e 512 -c 2 -a 0 -i 31 -k AGT 
- -t 16.267218002 -s 0 -d -1 -p cbr -e 512 -c 2 -a 0 -i 31 -k AGT
h -t 16.267218002 -s 0 -d -1 -p cbr -e 512 -c 2 -a 0 -i 31 -k AGT
+ -t 16.267218002 -s 0 -d 3 -p cbr -e 532 -c 2 -a 0 -i 31 -k RTR 
- -t 16.267218002 -s 0 -d 3 -p cbr -e 532 -c 2 -a 0 -i 31 -k RTR
h -t 16.267218002 -s 0 -d 3 -p cbr -e 532 -c 2 -a 0 -i 31 -k RTR
+ -t 16.272968002 -s 3 -d 6 -p cbr -e 532 -c 2 -a 0 -i 31 -k RTR 
- -t 16.272968002 -s 3 -d 6 -p cbr -e 532 -c 2 -a 0 -i 31 -k RTR
h -t 16.272968002 -s 3 -d 6 -p cbr -e 532 -c 2 -a 0 -i 31 -k RTR
+ -t 16.279042002 -s 6 -d 7 -p cbr -e 532 -c 2 -a 0 -i 31 -k RTR 
- -t 16.279042002 -s 6 -d 7 -p cbr -e 532 -c 2 -a 0 -i 31 -k RTR
h -t 16.279042002 -s 6 -d 7 -p cbr -e 532 -c 2 -a 0 -i 31 -k RTR
r -t 16.284996002 -s 7 -d 7 -p cbr -e 512 -c 2 -a 0 -i 31 -k AGT
+ -t 16.298653262 -s 0 -d -1 -p cbr -e 512 -c 2 -a 0 -i 32 -k AGT 
- -t 16.298653262 -s 0 -d -1 -p cbr -e 512 -c 2 -a 0 -i 32 -k AGT
h -t 16.298653262 -s 0 -d -1 -p cbr -e 512 -c 2 -a 0 -i 32 -k AGT
+ -t 16.298653262 -s 0 -d 3 -p cbr -e 532 -c 2 -a 0 -i 32 -k RTR 
- -t 16.298653262 -s 0 -d 3 -p cbr -e 532 -c 2 -a 0 -i 32 -k RTR
h -t 16.298653262 -s 0 -d 3 -p cbr -e 532 -c 2 -a 0 -i 32 -k RTR
+ -t 16.304423262 -s 3 -d 6 -p cbr -e 532 -c 2 -a 0 -i 32 -k RTR 
- -t 16.304423262 -s 3 -d 6 -p cbr -e 532 -c 2 -a 0 -i 32 -k RTR
h -t 16.304423262 -s 3 -d 6 -p cbr -e 532 -c 2 -a 0 -i 32 -k RTR
+ -t 16.310677262 -s 6 -d 7 -p cbr -e 532 -c 2 -a 0 -i 32 -k RTR 
- -t 16.310677262 -s 6 -d 7 -p cbr -e 532 -c 2 -a 0 -i 32 -k RTR
h -t 16.310677262 -s 6 -d 7 -p cbr -e 532 -c 2 -a 0 -i 32 -k RTR
r -t 16.316791262 -s 7 -d 7 -p cbr -e 512 -c 2 -a 0 -i 32 -k AGT
+ -t 16.344684578 -s 0 -d -1 -p cbr -e 512 -c 2 -a 0 -i 33 -k AGT 
- -t 16.344684578 -s 0 -d -1 -p cbr -e 512 -c 2 -a 0 -i 33 -k AGT
h -t 16.344684578 -s 0 -d -1 -p cbr -e 512 -c 2 -a 0 -i 33 -k AGT
+ -t 16.344684578 -s 0 -d 3 -p cbr -e 532 -c 2 -a 0 -i 33 -k RTR 
- -t 16.344684578 -s 0 -d 3 -p cbr -e 532 -c 2 -a 0 -i 33 -k RTR
h -t 16.344684578 -s 0 -d 3 -p cbr -e 532 -c 2 -a 0 -i 33 -k RTR
+ -t 16.350634578 -s 3 -d 6 -p cbr -e 532 -c 2 -a 0 -i 33 -k RTR 
- -t 16.350634578 -s 3 -d 6 -p cbr -e 532 -c 2 -a 0 -i 33 -k RTR
h -t 16.350634578 -s 3 -d 6 -p cbr -e 532 -c 2 -a 0 -i 33 -k RTR
+ -t 16.356748578 -s 6 -d 7 -p cbr -e 532 -c 2 -a 0 -i 33 -k RTR 
- -t 16.356748578 -s 6 -d 7 -p cbr -e 532 -c 2 -a 0 -i 33 -k RTR
h -t 16.356748578 -s 6 -d 7 -p cbr -e 532 -c 2 -a 0 -i 33 -k RTR
r -t 16.362562578 -s 7 -d 7 -p cbr -e 512 -c 2 -a 0 -i 33 -k AGT
+ -t 16.404168360 -s 0 -d -1 -p cbr -e 512 -c 2 -a 0 -i 34 -k AGT 
- -t 16.404168360 -s 0 -d -1 -p cbr -e 512 -c 2 -a 0 -i 34 -k AGT
h -t 16.404168360 -s 0 -d -1 -p cbr -e 512 -c 2 -a 0 -i 34 -k AGT
+ -t 16.404168360 -s 0 -d 3 -p cbr -e 532 -c 2 -a 0 -i 34 -k RTR 
- -t 16.404168360 -s 0 -d 3 -p cbr -e 532 -c 2 -a 0 -i 34 -k RTR
h -t 16.404168360 -s 0 -d 3 -p cbr -e 532 -c 2 -a 0 -i 34 -k RTR
+ -t 16.410058360 -s 3 -d 6 -p cbr -e 532 -c 2 -a 0 -i 34 -k RTR 
- -t 16.410058360 -s 3 -d 6 -p cbr -e 532 -c 2 -a 0 -i 34 -k RTR
h -t 16.410058360 -s 3 -d 6 -p cbr -e 532 -c 2 -a 0 -i 34 -k RTR
+ -t 16.416252360 -s 6 -d 7 -p cbr -e 532 -c 2 -a 0 -i 34 -k RTR 
- -t 16.416252360 -s 6 -d 7 -p cbr -e 532 -c 2 -a 0 -i 34 -k RTR
h -t 16.416252360 -s 6 -d 7 -p cbr -e 532 -c 2 -a 0 -i 34 -k RTR
r -t 16.422566360 -s 7 -d 7 -p cbr -e 512 -c 2 -a 0 -i 34 -k AGT
+ -t 16.441877554 -s 0 -d -1 -p cbr -e 512 -c 2 -a 0 -i 35 -k AGT 
- -t 16.441877554 -s 0 -d -1 -p cbr -e 512 -c 2 -a 0 -i 35 -k AGT
h -t 16.441877554 -s 0 -d -1 -p cbr -e 512 -c 2 -a 0 -i 35 -k AGT
+ -t 16.441877554 -s 0 -d 3 -p cbr -e 532 -c 2 -a 0 -i 35 -k RTR 
- -t 16.441877554 -s 0 -d 3 -p cbr -e 532 -c 2 -a 0 -i 35 -k RTR
h -t 16.441877554 -s 0 -d 3 -p cbr -e 532 -c 2 -a 0 -i 35 -k RTR
+ -t 16.447767554 -s 3 -d 6 -p cbr -e 532 -c 2 -a 0 -i 35 -k RTR 
- -t 16.447767554 -s 3 -d 6 -p cbr -e 532 -c 2 -a 0 -i 35 -k RTR
h -t 16.447767554 -s 3 -d 6 -p cbr -e 532 -c 2 -a 0 -i 35 -k RTR
+ -t 16.453661554 -s 6 -d 7 -p cbr -e 532 -c 2 -a 0 -i 35 -k RTR 
- -t 16.453661554 -s 6 -d 7 -p cbr -e 532 -c 2 -a 0 -i 35 -k RTR
h -t 16.453661554 -s 6 -d 7 -p cbr -e 532 -c 2 -a 0 -i 35 -k RTR
r -t 16.459835554 -s 7 -d 7 -p cbr -e 512 -c 2 -a 0 -i 35 -k AGT
+ -t 16.506082329 -s 0 -d -1 -p cbr -e 512 -c 2 -a 0 -i 36 -k AGT 
- -t 16.506082329 -s 0 -d -1 -p cbr -e 512 -c 2 -a 0 -i 36 -k AGT