n -t * -s 0  -x 100 -y 100 -Z 0 -z 30  -v circle -c black
n -t * -s 1  -x 300 -y 100 -Z 0 -z 30  -v circle -c black
n -t * -s 2  -x 500 -y 100 -Z 0 -z 30  -v circle -c black
n -t * -s 3  -x 200 -y 200 -Z 0 -z 30  -v circle -c black
n -t * -s 4  -x 400 -y 200 -Z 0 -z 30  -v circle -c black
n -t * -s 5  -x 100 -y 300 -Z 0 -z 30  -v circle -c black
n -t * -s 6  -x 300 -y 300 -Z 0 -z 30  -v circle -c black
n -t * -s 7  -x 500 -y 300 -Z 0 -z 30  -v circle -c black
V -t * -v 1.0a5 -a 0
W -t * -x 500 -y 500
A -t * -n 1 -p 0 -o 0xffffffff -c 31 -a 1
A -t * -h 1 -m 2147483647 -s 0
+ -t 0.000000000 -s 0 -d -1 -p AODV -e 44 -c 2 -a 0 -i 0 -k RTR 
- -t 0.000000000 -s 0 -d -1 -p AODV -e 44 -c 2 -a 0 -i 0 -k RTR
h -t 0.000000000 -s 0 -d -1 -p AODV -e 44 -c 2 -a 0 -i 0 -k RTR
+ -t 0.000000000 -s 1 -d -1 -p AODV -e 44 -c 2 -a 0 -i 0 -k RTR 
- -t 0.000000000 -s 1 -d -1 -p AODV -e 44 -c 2 -a 0 -i 0 -k RTR
h -t 0.000000000 -s 1 -d -1 -p AODV -e 44 -c 2 -a 0 -i 0 -k RTR
+ -t 0.000000000 -s 2 -d -1 -p AODV -e 44 -c 2 -a 0 -i 0 -k RTR 
- -t 0.000000000 -s 2 -d -1 -p AODV -e 44 -c 2 -a 0 -i 0 -k RTR
h -t 0.000000000 -s 2 -d -1 -p AODV -e 44 -c 2 -a 0 -i 0 -k RTR
+ -t 0.000000000 -s 3 -d -1 -p AODV -e 44 -c 2 -a 0 -i 0 -k RTR 
- -t 0.000000000 -s 3 -d -1 -p AODV -e 44 -c 2 -a 0 -i 0 -k RTR
h -t 0.000000000 -s 3 -d -1 -p AODV -e 44 -c 2 -a 0 -i 0 -k RTR
+ -t 0.000000000 -s 4 -d -1 -p AODV -e 44 -c 2 -a 0 -i 0 -k RTR 
- -t 0.000000000 -s 4 -d -1 -p AODV -e 44 -c 2 -a 0 -i 0 -k RTR
h -t 0.000000000 -s 4 -d -1 -p AODV -e 44 -c 2 -a 0 -i 0 -k RTR
+ -t 0.000000000 -s 5 -d -1 -p AODV -e 44 -c 2 -a 0 -i 0 -k RTR 
- -t 0.000000000 -s 5 -d -1 -p AODV -e 44 -c 2 -a 0 -i 0 -k RTR
h -t 0.000000000 -s 5 -d -1 -p AODV -e 44 -c 2 -a 0 -i 0 -k RTR
+ -t 0.000000000 -s 6 -d -1 -p AODV -e 44 -c 2 -a 0 -i 0 -k RTR 
- -t 0.000000000 -s 6 -d -1 -p AODV -e 44 -c 2 -a 0 -i 0 -k RTR
h -t 0.000000000 -s 6 -d -1 -p AODV -e 44 -c 2 -a 0 -i 0 -k RTR
+ -t 0.000000000 -s 7 -d -1 -p AODV -e 44 -c 2 -a 0 -i 0 -k RTR 
- -t 0.000000000 -s 7 -d -1 -p AODV -e 44 -c 2 -a 0 -i 0 -k RTR
h -t 0.000000000 -s 7 -d -1 -p AODV -e 44 -c 2 -a 0 -i 0 -k RTR
r -t 0.000908471 -s 6 -d -1 -p AODV -e 44 -c 2 -a 0 -i 0 -k RTR
r -t 0.000908471 -s 1 -d -1 -p AODV -e 44 -c 2 -a 0 -i 0 -k RTR
r -t 0.000908471 -s 2 -d -1 -p AODV -e 44 -c 2 -a 0 -i 0 -k RTR
r -t 0.000908471 -s 7 -d -1 -p AODV -e 44 -c 2 -a 0 -i 0 -k RTR
+ -t 0.000908471 -s 6 -d 4 -p AODV -e 26 -c 2 -a 0 -i 0 -k RTR 
- -t 0.000908471 -s 6 -d 4 -p AODV -e 26 -c 2 -a 0 -i 0 -k RTR
h -t 0.000908471 -s 6 -d 4 -p AODV -e 26 -c 2 -a 0 -i 0 -k RTR
+ -t 0.000908471 -s 1 -d 4 -p AODV -e 26 -c 2 -a 0 -i 0 -k RTR 
- -t 0.000908471 -s 1 -d 4 -p AODV -e 26 -c 2 -a 0 -i 0 -k RTR
h -t 0.000908471 -s 1 -d 4 -p AODV -e 26 -c 2 -a 0 -i 0 -k RTR
+ -t 0.000908471 -s 2 -d 4 -p AODV -e 26 -c 2 -a 0 -i 0 -k RTR 
- -t 0.000908471 -s 2 -d 4 -p AODV -e 26 -c 2 -a 0 -i 0 -k RTR
h -t 0.000908471 -s 2 -d 4 -p AODV -e 26 -c 2 -a 0 -i 0 -k RTR
+ -t 0.000908471 -s 7 -d 4 -p AODV -e 26 -c 2 -a 0 -i 0 -k RTR 
- -t 0.000908471 -s 7 -d 4 -p AODV -e 26 -c 2 -a 0 -i 0 -k RTR
h -t 0.000908471 -s 7 -d 4 -p AODV -e 26 -c 2 -a 0 -i 0 -k RTR
r -t 0.000908667 -s 3 -d -1 -p AODV -e 44 -c 2 -a 0 -i 0 -k RTR
+ -t 0.000908667 -s 3 -d 4 -p AODV -e 26 -c 2 -a 0 -i 0 -k RTR 
- -t 0.000908667 -s 3 -d 4 -p AODV -e 26 -c 2 -a 0 -i 0 -k RTR
h -t 0.000908667 -s 3 -d 4 -p AODV -e 26 -c 2 -a 0 -i 0 -k RTR
r -t 0.001846943 -s 3 -d -1 -p AODV -e 44 -c 2 -a 0 -i 0 -k RTR
r -t 0.001846943 -s 4 -d -1 -p AODV -e 44 -c 2 -a 0 -i 0 -k RTR
+ -t 0.001846943 -s 3 -d 6 -p AODV -e 26 -c 2 -a 0 -i 0 -k RTR 
- -t 0.001846943 -s 3 -d 6 -p AODV -e 26 -c 2 -a 0 -i 0 -k RTR
h -t 0.001846943 -s 3 -d 6 -p AODV -e 26 -c 2 -a 0 -i 0 -k RTR
+ -t 0.001846943 -s 4 -d 6 -p AODV -e 26 -c 2 -a 0 -i 0 -k RTR 
- -t 0.001846943 -s 4 -d 6 -p AODV -e 26 -c 2 -a 0 -i 0 -k RTR
h -t 0.001846943 -s 4 -d 6 -p AODV -e 26 -c 2 -a 0 -i 0 -k RTR
r -t 0.001847138 -s 1 -d -1 -p AODV -e 44 -c 2 -a 0 -i 0 -k RTR
r -t 0.001847138 -s 5 -d -1 -p AODV -e 44 -c 2 -a 0 -i 0 -k RTR
r -t 0.001847138 -s 7 -d -1 -p AODV -e 44 -c 2 -a 0 -i 0 -k RTR
+ -t 0.001847138 -s 1 -d 6 -p AODV -e 26 -c 2 -a 0 -i 0 -k RTR 
- -t 0.001847138 -s 1 -d 6 -p AODV -e 26 -c 2 -a 0 -i 0 -k RTR
h -t 0.001847138 -s 1 -d 6 -p AODV -e 26 -c 2 -a 0 -i 0 -k RTR
+ -t 0.001847138 -s 5 -d 6 -p AODV -e 26 -c 2 -a 0 -i 0 -k RTR 
- -t 0.001847138 -s 5 -d 6 -p AODV -e 26 -c 2 -a 0 -i 0 -k RTR
h -t 0.001847138 -s 5 -d 6 -p AODV -e 26 -c 2 -a 0 -i 0 -k RTR
+ -t 0.001847138 -s 7 -d 6 -p AODV -e 26 -c 2 -a 0 -i 0 -k RTR 
- -t 0.001847138 -s 7 -d 6 -p AODV -e 26 -c 2 -a 0 -i 0 -k RTR
h -t 0.001847138 -s 7 -d 6 -p AODV -e 26 -c 2 -a 0 -i 0 -k RTR
r -t 0.002745414 -s 5 -d -1 -p AODV -e 44 -c 2 -a 0 -i 0 -k RTR
r -t 0.002745414 -s 0 -d -1 -p AODV -e 44 -c 2 -a 0 -i 0 -k RTR
r -t 0.002745414 -s 1 -d -1 -p AODV -e 44 -c 2 -a 0 -i 0 -k RTR
r -t 0.002745414 -s 6 -d -1 -p AODV -e 44 -c 2 -a 0 -i 0 -k RTR
+ -t 0.002745414 -s 5 -d 3 -p AODV -e 26 -c 2 -a 0 -i 0 -k RTR 
- -t 0.002745414 -s 5 -d 3 -p AODV -e 26 -c 2 -a 0 -i 0 -k RTR
h -t 0.002745414 -s 5 -d 3 -p AODV -e 26 -c 2 -a 0 -i 0 -k RTR
+ -t 0.002745414 -s 0 -d 3 -p AODV -e 26 -c 2 -a 0 -i 0 -k RTR 
- -t 0.002745414 -s 0 -d 3 -p AODV -e 26 -c 2 -a 0 -i 0 -k RTR
h -t 0.002745414 -s 0 -d 3 -p AODV -e 26 -c 2 -a 0 -i 0 -k RTR
+ -t 0.002745414 -s 1 -d 3 -p AODV -e 26 -c 2 -a 0 -i 0 -k RTR 
- -t 0.002745414 -s 1 -d 3 -p AODV -e 26 -c 2 -a 0 -i 0 -k RTR
h -t 0.002745414 -s 1 -d 3 -p AODV -e 26 -c 2 -a 0 -i 0 -k RTR
+ -t 0.002745414 -s 6 -d 3 -p AODV -e 26 -c 2 -a 0 -i 0 -k RTR 
- -t 0.002745414 -s 6 -d 3 -p AODV -e 26 -c 2 -a 0 -i 0 -k RTR
h -t 0.002745414 -s 6 -d 3 -p AODV -e 26 -c 2 -a 0 -i 0 -k RTR
r -t 0.002745609 -s 4 -d -1 -p AODV -e 44 -c 2 -a 0 -i 0 -k RTR
+ -t 0.002745609 -s 4 -d 3 -p AODV -e 26 -c 2 -a 0 -i 0 -k RTR 
- -t 0.002745609 -s 4 -d 3 -p AODV -e 26 -c 2 -a 0 -i 0 -k RTR
h -t 0.002745609 -s 4 -d 3 -p AODV -e 26 -c 2 -a 0 -i 0 -k RTR
r -t 0.007035381 -s 3 -d -1 -p AODV -e 44 -c 2 -a 0 -i 0 -k RTR
r -t 0.007035381 -s 4 -d -1 -p AODV -e 44 -c 2 -a 0 -i 0 -k RTR
+ -t 0.007035381 -s 3 -d 1 -p AODV -e 26 -c 2 -a 0 -i 0 -k RTR 
- -t 0.007035381 -s 3 -d 1 -p AODV -e 26 -c 2 -a 0 -i 0 -k RTR
h -t 0.007035381 -s 3 -d 1 -p AODV -e 26 -c 2 -a 0 -i 0 -k RTR
+ -t 0.007035381 -s 4 -d 1 -p AODV -e 26 -c 2 -a 0 -i 0 -k RTR 
- -t 0.007035381 -s 4 -d 1 -p AODV -e 26 -c 2 -a 0 -i 0 -k RTR
h -t 0.007035381 -s 4 -d 1 -p AODV -e 26 -c 2 -a 0 -i 0 -k RTR
r -t 0.007035576 -s 0 -d -1 -p AODV -e 44 -c 2 -a 0 -i 0 -k RTR
r -t 0.007035576 -s 6 -d -1 -p AODV -e 44 -c 2 -a 0 -i 0 -k RTR
r -t 0.007035576 -s 2 -d -1 -p AODV -e 44 -c 2 -a 0 -i 0 -k RTR
+ -t 0.007035576 -s 0 -d 1 -p AODV -e 26 -c 2 -a 0 -i 0 -k RTR 
- -t 0.007035576 -s 0 -d 1 -p AODV -e 26 -c 2 -a 0 -i 0 -k RTR
h -t 0.007035576 -s 0 -d 1 -p AODV -e 26 -c 2 -a 0 -i 0 -k RTR
+ -t 0.007035576 -s 6 -d 1 -p AODV -e 26 -c 2 -a 0 -i 0 -k RTR 
- -t 0.007035576 -s 6 -d 1 -p AODV -e 26 -c 2 -a 0 -i 0 -k RTR
h -t 0.007035576 -s 6 -d 1 -p AODV -e 26 -c 2 -a 0 -i 0 -k RTR
+ -t 0.007035576 -s 2 -d 1 -p AODV -e 26 -c 2 -a 0 -i 0 -k RTR 
- -t 0.007035576 -s 2 -d 1 -p AODV -e 26 -c 2 -a 0 -i 0 -k RTR
h -t 0.007035576 -s 2 -d 1 -p AODV -e 26 -c 2 -a 0 -i 0 -k RTR
r -t 0.007954047 -s 4 -d -1 -p AODV -e 44 -c 2 -a 0 -i 0 -k RTR
+ -t 0.007954047 -s 4 -d 2 -p AODV -e 26 -c 2 -a 0 -i 0 -k RTR 
- -t 0.007954047 -s 4 -d 2 -p AODV -e 26 -c 2 -a 0 -i 0 -k RTR
h -t 0.007954047 -s 4 -d 2 -p AODV -e 26 -c 2 -a 0 -i 0 -k RTR
r -t 0.007954243 -s 1 -d -1 -p AODV -e 44 -c 2 -a 0 -i 0 -k RTR
r -t 0.007954243 -s 7 -d -1 -p AODV -e 44 -c 2 -a 0 -i 0 -k RTR
+ -t 0.007954243 -s 1 -d 2 -p AODV -e 26 -c 2 -a 0 -i 0 -k RTR 
- -t 0.007954243 -s 1 -d 2 -p AODV -e 26 -c 2 -a 0 -i 0 -k RTR
h -t 0.007954243 -s 1 -d 2 -p AODV -e 26 -c 2 -a 0 -i 0 -k RTR
+ -t 0.007954243 -s 7 -d 2 -p AODV -e 26 -c 2 -a 0 -i 0 -k RTR 
- -t 0.007954243 -s 7 -d 2 -p AODV -e 26 -c 2 -a 0 -i 0 -k RTR
h -t 0.007954243 -s 7 -d 2 -p AODV -e 26 -c 2 -a 0 -i 0 -k RTR
r -t 0.008812714 -s 4 -d -1 -p AODV -e 44 -c 2 -a 0 -i 0 -k RTR
+ -t 0.008812714 -s 4 -d 7 -p AODV -e 26 -c 2 -a 0 -i 0 -k RTR 
- -t 0.008812714 -s 4 -d 7 -p AODV -e 26 -c 2 -a 0 -i 0 -k RTR
h -t 0.008812714 -s 4 -d 7 -p AODV -e 26 -c 2 -a 0 -i 0 -k RTR
r -t 0.008812909 -s 2 -d -1 -p AODV -e 44 -c 2 -a 0 -i 0 -k RTR
r -t 0.008812909 -s 6 -d -1 -p AODV -e 44 -c 2 -a 0 -i 0 -k RTR
+ -t 0.008812909 -s 2 -d 7 -p AODV -e 26 -c 2 -a 0 -i 0 -k RTR 
- -t 0.008812909 -s 2 -d 7 -p AODV -e 26 -c 2 -a 0 -i 0 -k RTR
h -t 0.008812909 -s 2 -d 7 -p AODV -e 26 -c 2 -a 0 -i 0 -k RTR
+ -t 0.008812909 -s 6 -d 7 -p AODV -e 26 -c 2 -a 0 -i 0 -k RTR 
- -t 0.008812909 -s 6 -d 7 -p AODV -e 26 -c 2 -a 0 -i 0 -k RTR
h -t 0.008812909 -s 6 -d 7 -p AODV -e 26 -c 2 -a 0 -i 0 -k RTR
r -t 0.014829542 -s 3 -d -1 -p AODV -e 44 -c 2 -a 0 -i 0 -k RTR
+ -t 0.014829542 -s 3 -d 0 -p AODV -e 26 -c 2 -a 0 -i 0 -k RTR 
- -t 0.014829542 -s 3 -d 0 -p AODV -e 26 -c 2 -a 0 -i 0 -k RTR
h -t 0.014829542 -s 3 -d 0 -p AODV -e 26 -c 2 -a 0 -i 0 -k RTR
r -t 0.014829738 -s 5 -d -1 -p AODV -e 44 -c 2 -a 0 -i 0 -k RTR
r -t 0.014829738 -s 1 -d -1 -p AODV -e 44 -c 2 -a 0 -i 0 -k RTR
+ -t 0.014829738 -s 5 -d 0 -p AODV -e 26 -c 2 -a 0 -i 0 -k RTR 
- -t 0.014829738 -s 5 -d 0 -p AODV -e 26 -c 2 -a 0 -i 0 -k RTR
h -t 0.014829738 -s 5 -d 0 -p AODV -e 26 -c 2 -a 0 -i 0 -k RTR
+ -t 0.014829738 -s 1 -d 0 -p AODV -e 26 -c 2 -a 0 -i 0 -k RTR 
- -t 0.014829738 -s 1 -d 0 -p AODV -e 26 -c 2 -a 0 -i 0 -k RTR
h -t 0.014829738 -s 1 -d 0 -p AODV -e 26 -c 2 -a 0 -i 0 -k RTR
+ -t 0.750169789 -s 0 -d -1 -p AODV -e 44 -c 2 -a 0 -i 0 -k RTR 
- -t 0.750169789 -s 0 -d -1 -p AODV -e 44 -c 2 -a 0 -i 0 -k RTR
h -t 0.750169789 -s 0 -d -1 -p AODV -e 44 -c 2 -a 0 -i 0 -k RTR
r -t 0.751338260 -s 3 -d -1 -p AODV -e 44 -c 2 -a 0 -i 0 -k RTR
+ -t 0.751338260 -s 3 -d 0 -p AODV -e 26 -c 2 -a 0 -i 0 -k RTR 
- -t 0.751338260 -s 3 -d 0 -p AODV -e 26 -c 2 -a 0 -i 0 -k RTR
h -t 0.751338260 -s 3 -d 0 -p AODV -e 26 -c 2 -a 0 -i 0 -k RTR
r -t 0.751338455 -s 5 -d -1 -p AODV -e 44 -c 2 -a 0 -i 0 -k RTR
r -t 0.751338455 -s 1 -d -1 -p AODV -e 44 -c 2 -a 0 -i 0 -k RTR
+ -t 0.751338455 -s 5 -d 0 -p AODV -e 26 -c 2 -a 0 -i 0 -k RTR 
- -t 0.751338455 -s 5 -d 0 -p AODV -e 26 -c 2 -a 0 -i 0 -k RTR
h -t 0.751338455 -s 5 -d 0 -p AODV -e 26 -c 2 -a 0 -i 0 -k RTR
+ -t 0.751338455 -s 1 -d 0 -p AODV -e 26 -c 2 -a 0 -i 0 -k RTR 
- -t 0.751338455 -s 1 -d 0 -p AODV -e 26 -c 2 -a 0 -i 0 -k RTR
h -t 0.751338455 -s 1 -d 0 -p AODV -e 26 -c 2 -a 0 -i 0 -k RTR
+ -t 0.757102330 -s 2 -d -1 -p AODV -e 44 -c 2 -a 0 -i 0 -k RTR 
- -t 0.757102330 -s 2 -d -1 -p AODV -e 44 -c 2 -a 0 -i 0 -k RTR
h -t 0.757102330 -s 2 -d -1 -p AODV -e 44 -c 2 -a 0 -i 0 -k RTR
r -t 0.758270802 -s 4 -d -1 -p AODV -e 44 -c 2 -a 0 -i 0 -k RTR
+ -t 0.758270802 -s 4 -d 2 -p AODV -e 26 -c 2 -a 0 -i 0 -k RTR 
- -t 0.758270802 -s 4 -d 2 -p AODV -e 26 -c 2 -a 0 -i 0 -k RTR
h -t 0.758270802 -s 4 -d 2 -p AODV -e 26 -c 2 -a 0 -i 0 -k RTR
r -t 0.758270997 -s 1 -d -1 -p AODV -e 44 -c 2 -a 0 -i 0 -k RTR
r -t 0.758270997 -s 7 -d -1 -p AODV -e 44 -c 2 -a 0 -i 0 -k RTR
+ -t 0.758270997 -s 1 -d 2 -p AODV -e 26 -c 2 -a 0 -i 0 -k RTR 
- -t 0.758270997 -s 1 -d 2 -p AODV -e 26 -c 2 -a 0 -i 0 -k RTR
h -t 0.758270997 -s 1 -d 2 -p AODV -e 26 -c 2 -a 0 -i 0 -k RTR
+ -t 0.758270997 -s 7 -d 2 -p AODV -e 26 -c 2 -a 0 -i 0 -k RTR 
- -t 0.758270997 -s 7 -d 2 -p AODV -e 26 -c 2 -a 0 -i 0 -k RTR
h -t 0.758270997 -s 7 -d 2 -p AODV -e 26 -c 2 -a 0 -i 0 -k RTR
+ -t 0.794061336 -s 3 -d -1 -p AODV -e 44 -c 2 -a 0 -i 0 -k RTR 
- -t 0.794061336 -s 3 -d -1 -p AODV -e 44 -c 2 -a 0 -i 0 -k RTR
h -t 0.794061336 -s 3 -d -1 -p AODV -e 44 -c 2 -a 0 -i 0 -k RTR
r -t 0.794989807 -s 5 -d -1 -p AODV -e 44 -c 2 -a 0 -i 0 -k RTR
r -t 0.794989807 -s 0 -d -1 -p AODV -e 44 -c 2 -a 0 -i 0 -k RTR
r -t 0.794989807 -s 1 -d -1 -p AODV -e 44 -c 2 -a 0 -i 0 -k RTR
r -t 0.794989807 -s 6 -d -1 -p AODV -e 44 -c 2 -a 0 -i 0 -k RTR
+ -t 0.794989807 -s 5 -d 3 -p AODV -e 26 -c 2 -a 0 -i 0 -k RTR 
- -t 0.794989807 -s 5 -d 3 -p AODV -e 26 -c 2 -a 0 -i 0 -k RTR
h -t 0.794989807 -s 5 -d 3 -p AODV -e 26 -c 2 -a 0 -i 0 -k RTR
+ -t 0.794989807 -s 0 -d 3 -p AODV -e 26 -c 2 -a 0 -i 0 -k RTR 
- -t 0.794989807 -s 0 -d 3 -p AODV -e 26 -c 2 -a 0 -i 0 -k RTR
h -t 0.794989807 -s 0 -d 3 -p AODV -e 26 -c 2 -a 0 -i 0 -k RTR
+ -t 0.794989807 -s 1 -d 3 -p AODV -e 26 -c 2 -a 0 -i 0 -k RTR 
- -t 0.794989807 -s 1 -d 3 -p AODV -e 26 -c 2 -a 0 -i 0 -k RTR
h -t 0.794989807 -s 1 -d 3 -p AODV -e 26 -c 2 -a 0 -i 0 -k RTR
+ -t 0.794989807 -s 6 -d 3 -p AODV -e 26 -c 2 -a 0 -i 0 -k RTR 
- -t 0.794989807 -s 6 -d 3 -p AODV -e 26 -c 2 -a 0 -i 0 -k RTR
h -t 0.794989807 -s 6 -d 3 -p AODV -e 26 -c 2 -a 0 -i 0 -k RTR
r -t 0.794990002 -s 4 -d -1 -p AODV -e 44 -c 2 -a 0 -i 0 -k RTR
+ -t 0.794990002 -s 4 -d 3 -p AODV -e 26 -c 2 -a 0 -i 0 -k RTR 
- -t 0.794990002 -s 4 -d 3 -p AODV -e 26 -c 2 -a 0 -i 0 -k RTR
h -t 0.794990002 -s 4 -d 3 -p AODV -e 26 -c 2 -a 0 -i 0 -k RTR
+ -t 0.906480886 -s 6 -d -1 -p AODV -e 44 -c 2 -a 0 -i 0 -k RTR 
- -t 0.906480886 -s 6 -d -1 -p AODV -e 44 -c 2 -a 0 -i 0 -k RTR
h -t 0.906480886 -s 6 -d -1 -p AODV -e 44 -c 2 -a 0 -i 0 -k RTR
r -t 0.907929357 -s 3 -d -1 -p AODV -e 44 -c 2 -a 0 -i 0 -k RTR
r -t 0.907929357 -s 4 -d -1 -p AODV -e 44 -c 2 -a 0 -i 0 -k RTR
+ -t 0.907929357 -s 3 -d 6 -p AODV -e 26 -c 2 -a 0 -i 0 -k RTR 
- -t 0.907929357 -s 3 -d 6 -p AODV -e 26 -c 2 -a 0 -i 0 -k RTR
h -t 0.907929357 -s 3 -d 6 -p AODV -e 26 -c 2 -a 0 -i 0 -k RTR
+ -t 0.907929357 -s 4 -d 6 -p AODV -e 26 -c 2 -a 0 -i 0 -k RTR 
- -t 0.907929357 -s 4 -d 6 -p AODV -e 26 -c 2 -a 0 -i 0 -k RTR
h -t 0.907929357 -s 4 -d 6 -p AODV -e 26 -c 2 -a 0 -i 0 -k RTR
r -t 0.907929552 -s 1 -d -1 -p AODV -e 44 -c 2 -a 0 -i 0 -k RTR
r -t 0.907929552 -s 5 -d -1 -p AODV -e 44 -c 2 -a 0 -i 0 -k RTR
r -t 0.907929552 -s 7 -d -1 -p AODV -e 44 -c 2 -a 0 -i 0 -k RTR
+ -t 0.907929552 -s 1 -d 6 -p AODV -e 26 -c 2 -a 0 -i 0 -k RTR 
- -t 0.907929552 -s 1 -d 6 -p AODV -e 26 -c 2 -a 0 -i 0 -k RTR
h -t 0.907929552 -s 1 -d 6 -p AODV -e 26 -c 2 -a 0 -i 0 -k RTR
+ -t 0.907929552 -s 5 -d 6 -p AODV -e 26 -c 2 -a 0 -i 0 -k RTR 
- -t 0.907929552 -s 5 -d 6 -p AODV -e 26 -c 2 -a 0 -i 0 -k RTR
h -t 0.907929552 -s 5 -d 6 -p AODV -e 26 -c 2 -a 0 -i 0 -k RTR
+ -t 0.907929552 -s 7 -d 6 -p AODV -e 26 -c 2 -a 0 -i 0 -k RTR 
- -t 0.907929552 -s 7 -d 6 -p AODV -e 26 -c 2 -a 0 -i 0 -k RTR
h -t 0.907929552 -s 7 -d 6 -p AODV -e 26 -c 2 -a 0 -i 0 -k RTR
+ -t 0.970586691 -s 4 -d -1 -p AODV -e 44 -c 2 -a 0 -i 0 -k RTR 
- -t 0.970586691 -s 4 -d -1 -p AODV -e 44 -c 2 -a 0 -i 0 -k RTR
h -t 0.970586691 -s 4 -d -1 -p AODV -e 44 -c 2 -a 0 -i 0 -k RTR
r -t 0.971875162 -s 6 -d -1 -p AODV -e 44 -c 2 -a 0 -i 0 -k RTR
r -t 0.971875162 -s 1 -d -1 -p AODV -e 44 -c 2 -a 0 -i 0 -k RTR
r -t 0.971875162 -s 2 -d -1 -p AODV -e 44 -c 2 -a 0 -i 0 -k RTR
r -t 0.971875162 -s 7 -d -1 -p AODV -e 44 -c 2 -a 0 -i 0 -k RTR
+ -t 0.971875162 -s 6 -d 4 -p AODV -e 26 -c 2 -a 0 -i 0 -k RTR 
- -t 0.971875162 -s 6 -d 4 -p AODV -e 26 -c 2 -a 0 -i 0 -k RTR
h -t 0.971875162 -s 6 -d 4 -p AODV -e 26 -c 2 -a 0 -i 0 -k RTR
+ -t 0.971875162 -s 1 -d 4 -p AODV -e 26 -c 2 -a 0 -i 0 -k RTR 
- -t 0.971875162 -s 1 -d 4 -p AODV -e 26 -c 2 -a 0 -i 0 -k RTR
h -t 0.971875162 -s 1 -d 4 -p AODV -e 26 -c 2 -a 0 -i 0 -k RTR
+ -t 0.971875162 -s 2 -d 4 -p AODV -e 26 -c 2 -a 0 -i 0 -k RTR 
- -t 0.971875162 -s 2 -d 4 -p AODV -e 26 -c 2 -a 0 -i 0 -k RTR
h -t 0.971875162 -s 2 -d 4 -p AODV -e 26 -c 2 -a 0 -i 0 -k RTR
+ -t 0.971875162 -s 7 -d 4 -p AODV -e 26 -c 2 -a 0 -i 0 -k RTR 
- -t 0.971875162 -s 7 -d 4 -p AODV -e 26 -c 2 -a 0 -i 0 -k RTR
h -t 0.971875162 -s 7 -d 4 -p AODV -e 26 -c 2 -a 0 -i 0 -k RTR
r -t 0.971875358 -s 3 -d -1 -p AODV -e 44 -c 2 -a 0 -i 0 -k RTR
+ -t 0.971875358 -s 3 -d 4 -p AODV -e 26 -c 2 -a 0 -i 0 -k RTR 
- -t 0.971875358 -s 3 -d 4 -p AODV -e 26 -c 2 -a 0 -i 0 -k RTR
h -t 0.971875358 -s 3 -d 4 -p AODV -e 26 -c 2 -a 0 -i 0 -k RTR
+ -t 1.027940358 -s 1 -d -1 -p AODV -e 44 -c 2 -a 0 -i 0 -k RTR 
- -t 1.027940358 -s 1 -d -1 -p AODV -e 44 -c 2 -a 0 -i 0 -k RTR
h -t 1.027940358 -s 1 -d -1 -p AODV -e 44 -c 2 -a 0 -i 0 -k RTR
r -t 1.028828829 -s 3 -d -1 -p AODV -e 44 -c 2 -a 0 -i 0 -k RTR
r -t 1.028828829 -s 4 -d -1 -p AODV -e 44 -c 2 -a 0 -i 0 -k RTR
+ -t 1.028828829 -s 3 -d 1 -p AODV -e 26 -c 2 -a 0 -i 0 -k RTR 
- -t 1.028828829 -s 3 -d 1 -p AODV -e 26 -c 2 -a 0 -i 0 -k RTR
h -t 1.028828829 -s 3 -d 1 -p AODV -e 26 -c 2 -a 0 -i 0 -k RTR
+ -t 1.028828829 -s 4 -d 1 -p AODV -e 26 -c 2 -a 0 -i 0 -k RTR 
- -t 1.028828829 -s 4 -d 1 -p AODV -e 26 -c 2 -a 0 -i 0 -k RTR
h -t 1.028828829 -s 4 -d 1 -p AODV -e 26 -c 2 -a 0 -i 0 -k RTR
r -t 1.028829025 -s 0 -d -1 -p AODV -e 44 -c 2 -a 0 -i 0 -k RTR
r -t 1.028829025 -s 6 -d -1 -p AODV -e 44 -c 2 -a 0 -i 0 -k RTR
r -t 1.028829025 -s 2 -d -1 -p AODV -e 44 -c 2 -a 0 -i 0 -k RTR
+ -t 1.028829025 -s 0 -d 1 -p AODV -e 26 -c 2 -a 0 -i 0 -k RTR 
- -t 1.028829025 -s 0 -d 1 -p AODV -e 26 -c 2 -a 0 -i 0 -k RTR
h -t 1.028829025 -s 0 -d 1 -p AODV -e 26 -c 2 -a 0 -i 0 -k RTR
+ -t 1.028829025 -s 6 -d 1 -p AODV -e 26 -c 2 -a 0 -i 0 -k RTR 
- -t 1.028829025 -s 6 -d 1 -p AODV -e 26 -c 2 -a 0 -i 0 -k RTR
h -t 1.028829025 -s 6 -d 1 -p AODV -e 26 -c 2 -a 0 -i 0 -k RTR
+ -t 1.028829025 -s 2 -d 1 -p AODV -e 26 -c 2 -a 0 -i 0 -k RTR 
- -t 1.028829025 -s 2 -d 1 -p AODV -e 26 -c 2 -a 0 -i 0 -k RTR
h -t 1.028829025 -s 2 -d 1 -p AODV -e 26 -c 2 -a 0 -i 0 -k RTR
+ -t 1.149577727 -s 5 -d -1 -p AODV -e 44 -c 2 -a 0 -i 0 -k RTR 
- -t 1.149577727 -s 5 -d -1 -p AODV -e 44 -c 2 -a 0 -i 0 -k RTR
h -t 1.149577727 -s 5 -d -1 -p AODV -e 44 -c 2 -a 0 -i 0 -k RTR
r -t 1.150446198 -s 3 -d -1 -p AODV -e 44 -c 2 -a 0 -i 0 -k RTR
+ -t 1.150446198 -s 3 -d 5 -p AODV -e 26 -c 2 -a 0 -i 0 -k RTR 
- -t 1.150446198 -s 3 -d 5 -p AODV -e 26 -c 2 -a 0 -i 0 -k RTR
h -t 1.150446198 -s 3 -d 5 -p AODV -e 26 -c 2 -a 0 -i 0 -k RTR
r -t 1.150446393 -s 0 -d -1 -p AODV -e 44 -c 2 -a 0 -i 0 -k RTR
r -t 1.150446393 -s 6 -d -1 -p AODV -e 44 -c 2 -a 0 -i 0 -k RTR
+ -t 1.150446393 -s 0 -d 5 -p AODV -e 26 -c 2 -a 0 -i 0 -k RTR 
- -t 1.150446393 -s 0 -d 5 -p AODV -e 26 -c 2 -a 0 -i 0 -k RTR
h -t 1.150446393 -s 0 -d 5 -p AODV -e 26 -c 2 -a 0 -i 0 -k RTR
+ -t 1.150446393 -s 6 -d 5 -p AODV -e 26 -c 2 -a 0 -i 0 -k RTR 
- -t 1.150446393 -s 6 -d 5 -p AODV -e 26 -c 2 -a 0 -i 0 -k RTR
h -t 1.150446393 -s 6 -d 5 -p AODV -e 26 -c 2 -a 0 -i 0 -k RTR
+ -t 1.158238026 -s 7 -d -1 -p AODV -e 44 -c 2 -a 0 -i 0 -k RTR 
- -t 1.158238026 -s 7 -d -1 -p AODV -e 44 -c 2 -a 0 -i 0 -k RTR
h -t 1.158238026 -s 7 -d -1 -p AODV -e 44 -c 2 -a 0 -i 0 -k RTR
r -t 1.159246497 -s 4 -d -1 -p AODV -e 44 -c 2 -a 0 -i 0 -k RTR
+ -t 1.159246497 -s 4 -d 7 -p AODV -e 26 -c 2 -a 0 -i 0 -k RTR 
- -t 1.159246497 -s 4 -d 7 -p AODV -e 26 -c 2 -a 0 -i 0 -k RTR
h -t 1.159246497 -s 4 -d 7 -p AODV -e 26 -c 2 -a 0 -i 0 -k RTR
r -t 1.159246692 -s 2 -d -1 -p AODV -e 44 -c 2 -a 0 -i 0 -k RTR
r -t 1.159246692 -s 6 -d -1 -p AODV -e 44 -c 2 -a 0 -i 0 -k RTR
+ -t 1.159246692 -s 2 -d 7 -p AODV -e 26 -c 2 -a 0 -i 0 -k RTR 
- -t 1.159246692 -s 2 -d 7 -p AODV -e 26 -c 2 -a 0 -i 0 -k RTR
h -t 1.159246692 -s 2 -d 7 -p AODV -e 26 -c 2 -a 0 -i 0 -k RTR
+ -t 1.159246692 -s 6 -d 7 -p AODV -e 26 -c 2 -a 0 -i 0 -k RTR 
- -t 1.159246692 -s 6 -d 7 -p AODV -e 26 -c 2 -a 0 -i 0 -k RTR
h -t 1.159246692 -s 6 -d 7 -p AODV -e 26 -c 2 -a 0 -i 0 -k RTR
+ -t 1.513948525 -s 0 -d -1 -p AODV -e 44 -c 2 -a 0 -i 0 -k RTR 
- -t 1.513948525 -s 0 -d -1 -p AODV -e 44 -c 2 -a 0 -i 0 -k RTR
h -t 1.513948525 -s 0 -d -1 -p AODV -e 44 -c 2 -a 0 -i 0 -k RTR
r -t 1.514816996 -s 3 -d -1 -p AODV -e 44 -c 2 -a 0 -i 0 -k RTR
+ -t 1.514816996 -s 3 -d 0 -p AODV -e 26 -c 2 -a 0 -i 0 -k RTR 
- -t 1.514816996 -s 3 -d 0 -p AODV -e 26 -c 2 -a 0 -i 0 -k RTR
h -t 1.514816996 -s 3 -d 0 -p AODV -e 26 -c 2 -a 0 -i 0 -k RTR
r -t 1.514817191 -s 5 -d -1 -p AODV -e 44 -c 2 -a 0 -i 0 -k RTR
r -t 1.514817191 -s 1 -d -1 -p AODV -e 44 -c 2 -a 0 -i 0 -k RTR
+ -t 1.514817191 -s 5 -d 0 -p AODV -e 26 -c 2 -a 0 -i 0 -k RTR 
- -t 1.514817191 -s 5 -d 0 -p AODV -e 26 -c 2 -a 0 -i 0 -k RTR
h -t 1.514817191 -s 5 -d 0 -p AODV -e 26 -c 2 -a 0 -i 0 -k RTR
+ -t 1.514817191 -s 1 -d 0 -p AODV -e 26 -c 2 -a 0 -i 0 -k RTR 
- -t 1.514817191 -s 1 -d 0 -p AODV -e 26 -c 2 -a 0 -i 0 -k RTR
h -t 1.514817191 -s 1 -d 0 -p AODV -e 26 -c 2 -a 0 -i 0 -k RTR
+ -t 1.837528918 -s 1 -d -1 -p AODV -e 44 -c 2 -a 0 -i 0 -k RTR 
- -t 1.837528918 -s 1 -d -1 -p AODV -e 44 -c 2 -a 0 -i 0 -k RTR
h -t 1.837528918 -s 1 -d -1 -p AODV -e 44 -c 2 -a 0 -i 0 -k RTR
r -t 1.838437390 -s 3 -d -1 -p AODV -e 44 -c 2 -a 0 -i 0 -k RTR
r -t 1.838437390 -s 4 -d -1 -p AODV -e 44 -c 2 -a 0 -i 0 -k RTR
+ -t 1.838437390 -s 3 -d 1 -p AODV -e 26 -c 2 -a 0 -i 0 -k RTR 
- -t 1.838437390 -s 3 -d 1 -p AODV -e 26 -c 2 -a 0 -i 0 -k RTR
h -t 1.838437390 -s 3 -d 1 -p AODV -e 26 -c 2 -a 0 -i 0 -k RTR
+ -t 1.838437390 -s 4 -d 1 -p AODV -e 26 -c 2 -a 0 -i 0 -k RTR 
- -t 1.838437390 -s 4 -d 1 -p AODV -e 26 -c 2 -a 0 -i 0 -k RTR
h -t 1.838437390 -s 4 -d 1 -p AODV -e 26 -c 2 -a 0 -i 0 -k RTR
r -t 1.838437585 -s 0 -d -1 -p AODV -e 44 -c 2 -a 0 -i 0 -k RTR
r -t 1.838437585 -s 6 -d -1 -p AODV -e 44 -c 2 -a 0 -i 0 -k RTR
r -t 1.838437585 -s 2 -d -1 -p AODV -e 44 -c 2 -a 0 -i 0 -k RTR
+ -t 1.838437585 -s 0 -d 1 -p AODV -e 26 -c 2 -a 0 -i 0 -k RTR 
- -t 1.838437585 -s 0 -d 1 -p AODV -e 26 -c 2 -a 0 -i 0 -k RTR
h -t 1.838437585 -s 0 -d 1 -p AODV -e 26 -c 2 -a 0 -i 0 -k RTR
+ -t 1.838437585 -s 6 -d 1 -p AODV -e 26 -c 2 -a 0 -i 0 -k RTR 
- -t 1.838437585 -s 6 -d 1 -p AODV -e 26 -c 2 -a 0 -i 0 -k RTR
h -t 1.838437585 -s 6 -d 1 -p AODV -e 26 -c 2 -a 0 -i 0 -k RTR
+ -t 1.838437585 -s 2 -d 1 -p AODV -e 26 -c 2 -a 0 -i 0 -k RTR 
- -t 1.838437585 -s 2 -d 1 -p AODV -e 26 -c 2 -a 0 -i 0 -k RTR
h -t 1.838437585 -s 2 -d 1 -p AODV -e 26 -c 2 -a 0 -i 0 -k RTR
+ -t 1.843282809 -s 6 -d -1 -p AODV -e 44 -c 2 -a 0 -i 0 -k RTR 
- -t 1.843282809 -s 6 -d -1 -p AODV -e 44 -c 2 -a 0 -i 0 -k RTR
h -t 1.843282809 -s 6 -d -1 -p AODV -e 44 -c 2 -a 0 -i 0 -k RTR
r -t 1.848807660 -s 3 -d -1 -p AODV -e 44 -c 2 -a 0 -i 0 -k RTR
r -t 1.848807660 -s 4 -d -1 -p AODV -e 44 -c 2 -a 0 -i 0 -k RTR
+ -t 1.848807660 -s 3 -d 6 -p AODV -e 26 -c 2 -a 0 -i 0 -k RTR 
- -t 1.848807660 -s 3 -d 6 -p AODV -e 26 -c 2 -a 0 -i 0 -k RTR
h -t 1.848807660 -s 3 -d 6 -p AODV -e 26 -c 2 -a 0 -i 0 -k RTR
+ -t 1.848807660 -s 4 -d 6 -p AODV -e 26 -c 2 -a 0 -i 0 -k RTR 
- -t 1.848807660 -s 4 -d 6 -p AODV -e 26 -c 2 -a 0 -i 0 -k RTR
h -t 1.848807660 -s 4 -d 6 -p AODV -e 26 -c 2 -a 0 -i 0 -k RTR
r -t 1.848807855 -s 1 -d -1 -p AODV -e 44 -c 2 -a 0 -i 0 -k RTR
r -t 1.848807855 -s 5 -d -1 -p AODV -e 44 -c 2 -a 0 -i 0 -k RTR
r -t 1.848807855 -s 7 -d -1 -p AODV -e 44 -c 2 -a 0 -i 0 -k RTR
+ -t 1.848807855 -s 1 -d 6 -p AODV -e 26 -c 2 -a 0 -i 0 -k RTR 
- -t 1.848807855 -s 1 -d 6 -p AODV -e 26 -c 2 -a 0 -i 0 -k RTR
h -t 1.848807855 -s 1 -d 6 -p AODV -e 26 -c 2 -a 0 -i 0 -k RTR
+ -t 1.848807855 -s 5 -d 6 -p AODV -e 26 -c 2 -a 0 -i 0 -k RTR 
- -t 1.848807855 -s 5 -d 6 -p AODV -e 26 -c 2 -a 0 -i 0 -k RTR
h -t 1.848807855 -s 5 -d 6 -p AODV -e 26 -c 2 -a 0 -i 0 -k RTR
+ -t 1.848807855 -s 7 -d 6 -p AODV -e 26 -c 2 -a 0 -i 0 -k RTR 
- -t 1.848807855 -s 7 -d 6 -p AODV -e 26 -c 2 -a 0 -i 0 -k RTR
h -t 1.848807855 -s 7 -d 6 -p AODV -e 26 -c 2 -a 0 -i 0 -k RTR
+ -t 1.951261413 -s 3 -d -1 -p AODV -e 44 -c 2 -a 0 -i 0 -k RTR 
- -t 1.951261413 -s 3 -d -1 -p AODV -e 44 -c 2 -a 0 -i 0 -k RTR
h -t 1.951261413 -s 3 -d -1 -p AODV -e 44 -c 2 -a 0 -i 0 -k RTR
r -t 1.952689884 -s 5 -d -1 -p AODV -e 44 -c 2 -a 0 -i 0 -k RTR
r -t 1.952689884 -s 0 -d -1 -p AODV -e 44 -c 2 -a 0 -i 0 -k RTR
r -t 1.952689884 -s 1 -d -1 -p AODV -e 44 -c 2 -a 0 -i 0 -k RTR
r -t 1.952689884 -s 6 -d -1 -p AODV -e 44 -c 2 -a 0 -i 0 -k RTR
+ -t 1.952689884 -s 5 -d 3 -p AODV -e 26 -c 2 -a 0 -i 0 -k RTR 
- -t 1.952689884 -s 5 -d 3 -p AODV -e 26 -c 2 -a 0 -i 0 -k RTR
h -t 1.952689884 -s 5 -d 3 -p AODV -e 26 -c 2 -a 0 -i 0 -k RTR
+ -t 1.952689884 -s 0 -d 3 -p AODV -e 26 -c 2 -a 0 -i 0 -k RTR 
- -t 1.952689884 -s 0 -d 3 -p AODV -e 26 -c 2 -a 0 -i 0 -k RTR
h -t 1.952689884 -s 0 -d 3 -p AODV -e 26 -c 2 -a 0 -i 0 -k RTR
+ -t 1.952689884 -s 1 -d 3 -p AODV -e 26 -c 2 -a 0 -i 0 -k RTR 
- -t 1.952689884 -s 1 -d 3 -p AODV -e 26 -c 2 -a 0 -i 0 -k RTR
h -t 1.952689884 -s 1 -d 3 -p AODV -e 26 -c 2 -a 0 -i 0 -k RTR
+ -t 1.952689884 -s 6 -d 3 -p AODV -e 26 -c 2 -a 0 -i 0 -k RTR 
- -t 1.952689884 -s 6 -d 3 -p AODV -e 26 -c 2 -a 0 -i 0 -k RTR
h -t 1.952689884 -s 6 -d 3 -p AODV -e 26 -c 2 -a 0 -i 0 -k RTR
r -t 1.952690080 -s 4 -d -1 -p AODV -e 44 -c 2 -a 0 -i 0 -k RTR
+ -t 1.952690080 -s 4 -d 3 -p AODV -e 26 -c 2 -a 0 -i 0 -k RTR 
- -t 1.952690080 -s 4 -d 3 -p AODV -e 26 -c 2 -a 0 -i 0 -k RTR
h -t 1.952690080 -s 4 -d 3 -p AODV -e 26 -c 2 -a 0 -i 0 -k RTR
+ -t 1.995105680 -s 2 -d -1 -p AODV -e 44 -c 2 -a 0 -i 0 -k RTR 
- -t 1.995105680 -s 2 -d -1 -p AODV -e 44 -c 2 -a 0 -i 0 -k RTR
h -t 1.995105680 -s 2 -d -1 -p AODV -e 44 -c 2 -a 0 -i 0 -k RTR
r -t 1.996294152 -s 4 -d -1 -p AODV -e 44 -c 2 -a 0 -i 0 -k RTR
+ -t 1.996294152 -s 4 -d 2 -p AODV -e 26 -c 2 -a 0 -i 0 -k RTR 
- -t 1.996294152 -s 4 -d 2 -p AODV -e 26 -c 2 -a 0 -i 0 -k RTR
h -t 1.996294152 -s 4 -d 2 -p AODV -e 26 -c 2 -a 0 -i 0 -k RTR
r -t 1.996294347 -s 1 -d -1 -p AODV -e 44 -c 2 -a 0 -i 0 -k RTR
r -t 1.996294347 -s 7 -d -1 -p AODV -e 44 -c 2 -a 0 -i 0 -k RTR
+ -t 1.996294347 -s 1 -d 2 -p AODV -e 26 -c 2 -a 0 -i 0 -k RTR 
- -t 1.996294347 -s 1 -d 2 -p AODV -e 26 -c 2 -a 0 -i 0 -k RTR
h -t 1.996294347 -s 1 -d 2 -p AODV -e 26 -c 2 -a 0 -i 0 -k RTR
+ -t 1.996294347 -s 7 -d 2 -p AODV -e 26 -c 2 -a 0 -i 0 -k RTR 
- -t 1.996294347 -s 7 -d 2 -p AODV -e 26 -c 2 -a 0 -i 0 -k RTR
h -t 1.996294347 -s 7 -d 2 -p AODV -e 26 -c 2 -a 0 -i 0 -k RTR
+ -t 2.123502609 -s 4 -d -1 -p AODV -e 44 -c 2 -a 0 -i 0 -k RTR 
- -t 2.123502609 -s 4 -d -1 -p AODV -e 44 -c 2 -a 0 -i 0 -k RTR
h -t 2.123502609 -s 4 -d -1 -p AODV -e 44 -c 2 -a 0 -i 0 -k RTR
r -t 2.124471081 -s 6 -d -1 -p AODV -e 44 -c 2 -a 0 -i 0 -k RTR
r -t 2.124471081 -s 1 -d -1 -p AODV -e 44 -c 2 -a 0 -i 0 -k RTR
r -t 2.124471081 -s 2 -d -1 -p AODV -e 44 -c 2 -a 0 -i 0 -k RTR
r -t 2.124471081 -s 7 -d -1 -p AODV -e 44 -c 2 -a 0 -i 0 -k RTR
+ -t 2.124471081 -s 6 -d 4 -p AODV -e 26 -c 2 -a 0 -i 0 -k RTR 
- -t 2.124471081 -s 6 -d 4 -p AODV -e 26 -c 2 -a 0 -i 0 -k RTR
h -t 2.124471081 -s 6 -d 4 -p AODV -e 26 -c 2 -a 0 -i 0 -k RTR
+ -t 2.124471081 -s 1 -d 4 -p AODV -e 26 -c 2 -a 0 -i 0 -k RTR 
- -t 2.124471081 -s 1 -d 4 -p AODV -e 26 -c 2 -a 0 -i 0 -k RTR
h -t 2.124471081 -s 1 -d 4 -p AODV -e 26 -c 2 -a 0 -i 0 -k RTR
+ -t 2.124471081 -s 2 -d 4 -p AODV -e 26 -c 2 -a 0 -i 0 -k RTR 
- -t 2.124471081 -s 2 -d 4 -p AODV -e 26 -c 2 -a 0 -i 0 -k RTR
h -t 2.124471081 -s 2 -d 4 -p AODV -e 26 -c 2 -a 0 -i 0 -k RTR
+ -t 2.124471081 -s 7 -d 4 -p AODV -e 26 -c 2 -a 0 -i 0 -k RTR 
- -t 2.124471081 -s 7 -d 4 -p AODV -e 26 -c 2 -a 0 -i 0 -k RTR
h -t 2.124471081 -s 7 -d 4 -p AODV -e 26 -c 2 -a 0 -i 0 -k RTR
r -t 2.124471276 -s 3 -d -1 -p AODV -e 44 -c 2 -a 0 -i 0 -k RTR
+ -t 2.124471276 -s 3 -d 4 -p AODV -e 26 -c 2 -a 0 -i 0 -k RTR 
- -t 2.124471276 -s 3 -d 4 -p AODV -e 26 -c 2 -a 0 -i 0 -k RTR
h -t 2.124471276 -s 3 -d 4 -p AODV -e 26 -c 2 -a 0 -i 0 -k RTR
+ -t 2.226777742 -s 7 -d -1 -p AODV -e 44 -c 2 -a 0 -i 0 -k RTR 
- -t 2.226777742 -s 7 -d -1 -p AODV -e 44 -c 2 -a 0 -i 0 -k RTR
h -t 2.226777742 -s 7 -d -1 -p AODV -e 44 -c 2 -a 0 -i 0 -k RTR
r -t 2.228246213 -s 4 -d -1 -p AODV -e 44 -c 2 -a 0 -i 0 -k RTR
+ -t 2.228246213 -s 4 -d 7 -p AODV -e 26 -c 2 -a 0 -i 0 -k RTR 
- -t 2.228246213 -s 4 -d 7 -p AODV -e 26 -c 2 -a 0 -i 0 -k RTR
h -t 2.228246213 -s 4 -d 7 -p AODV -e 26 -c 2 -a 0 -i 0 -k RTR
r -t 2.228246409 -s 2 -d -1 -p AODV -e 44 -c 2 -a 0 -i 0 -k RTR
r -t 2.228246409 -s 6 -d -1 -p AODV -e 44 -c 2 -a 0 -i 0 -k RTR
+ -t 2.228246409 -s 2 -d 7 -p AODV -e 26 -c 2 -a 0 -i 0 -k RTR 
- -t 2.228246409 -s 2 -d 7 -p AODV -e 26 -c 2 -a 0 -i 0 -k RTR
h -t 2.228246409 -s 2 -d 7 -p AODV -e 26 -c 2 -a 0 -i 0 -k RTR
+ -t 2.228246409 -s 6 -d 7 -p AODV -e 26 -c 2 -a 0 -i 0 -k RTR 
- -t 2.228246409 -s 6 -d 7 -p AODV -e 26 -c 2 -a 0 -i 0 -k RTR
h -t 2.228246409 -s 6 -d 7 -p AODV -e 26 -c 2 -a 0 -i 0 -k RTR
+ -t 2.335250132 -s 5 -d -1 -p AODV -e 44 -c 2 -a 0 -i 0 -k RTR 
- -t 2.335250132 -s 5 -d -1 -p AODV -e 44 -c 2 -a 0 -i 0 -k RTR
h -t 2.335250132 -s 5 -d -1 -p AODV -e 44 -c 2 -a 0 -i 0 -k RTR
r -t 2.336258603 -s 3 -d -1 -p AODV -e 44 -c 2 -a 0 -i 0 -k RTR
+ -t 2.336258603 -s 3 -d 5 -p AODV -e 26 -c 2 -a 0 -i 0 -k RTR 
- -t 2.336258603 -s 3 -d 5 -p AODV -e 26 -c 2 -a 0 -i 0 -k RTR
h -t 2.336258603 -s 3 -d 5 -p AODV -e 26 -c 2 -a 0 -i 0 -k RTR
r -t 2.336258799 -s 0 -d -1 -p AODV -e 44 -c 2 -a 0 -i 0 -k RTR
r -t 2.336258799 -s 6 -d -1 -p AODV -e 44 -c 2 -a 0 -i 0 -k RTR
+ -t 2.336258799 -s 0 -d 5 -p AODV -e 26 -c 2 -a 0 -i 0 -k RTR 
- -t 2.336258799 -s 0 -d 5 -p AODV -e 26 -c 2 -a 0 -i 0 -k RTR
h -t 2.336258799 -s 0 -d 5 -p AODV -e 26 -c 2 -a 0 -i 0 -k RTR
+ -t 2.336258799 -s 6 -d 5 -p AODV -e 26 -c 2 -a 0 -i 0 -k RTR 
- -t 2.336258799 -s 6 -d 5 -p AODV -e 26 -c 2 -a 0 -i 0 -k RTR
h -t 2.336258799 -s 6 -d 5 -p AODV -e 26 -c 2 -a 0 -i 0 -k RTR
+ -t 2.339845471 -s 0 -d -1 -p AODV -e 44 -c 2 -a 0 -i 0 -k RTR 
- -t 2.339845471 -s 0 -d -1 -p AODV -e 44 -c 2 -a 0 -i 0 -k RTR
h -t 2.339845471 -s 0 -d -1 -p AODV -e 44 -c 2 -a 0 -i 0 -k RTR
r -t 2.342826489 -s 3 -d -1 -p AODV -e 44 -c 2 -a 0 -i 0 -k RTR
+ -t 2.342826489 -s 3 -d 0 -p AODV -e 26 -c 2 -a 0 -i 0 -k RTR 
- -t 2.342826489 -s 3 -d 0 -p AODV -e 26 -c 2 -a 0 -i 0 -k RTR
h -t 2.342826489 -s 3 -d 0 -p AODV -e 26 -c 2 -a 0 -i 0 -k RTR
r -t 2.342826684 -s 5 -d -1 -p AODV -e 44 -c 2 -a 0 -i 0 -k RTR
r -t 2.342826684 -s 1 -d -1 -p AODV -e 44 -c 2 -a 0 -i 0 -k RTR
+ -t 2.342826684 -s 5 -d 0 -p AODV -e 26 -c 2 -a 0 -i 0 -k RTR 
- -t 2.342826684 -s 5 -d 0 -p AODV -e 26 -c 2 -a 0 -i 0 -k RTR
h -t 2.342826684 -s 5 -d 0 -p AODV -e 26 -c 2 -a 0 -i 0 -k RTR
+ -t 2.342826684 -s 1 -d 0 -p AODV -e 26 -c 2 -a 0 -i 0 -k RTR 
- -t 2.342826684 -s 1 -d 0 -p AODV -e 26 -c 2 -a 0 -i 0 -k RTR
h -t 2.342826684 -s 1 -d 0 -p AODV -e 26 -c 2 -a 0 -i 0 -k RTR
+ -t 2.718959359 -s 1 -d -1 -p AODV -e 44 -c 2 -a 0 -i 0 -k RTR 
- -t 2.718959359 -s 1 -d -1 -p AODV -e 44 -c 2 -a 0 -i 0 -k RTR
h -t 2.718959359 -s 1 -d -1 -p AODV -e 44 -c 2 -a 0 -i 0 -k RTR