n -t * -s 0  -x 272 -y 186 -Z 0 -z 30  -v circle -c black
n -t * -s 1  -x 392 -y 68 -Z 0 -z 30  -v circle -c black
n -t * -s 2  -x 310 -y 310 -Z 0 -z 30  -v circle -c black
n -t * -s 3  -x 210 -y 497 -Z 0 -z 30  -v circle -c black
n -t * -s 4  -x 87 -y 351 -Z 0 -z 30  -v circle -c black
n -t * -s 5  -x 35 -y 145 -Z 0 -z 30  -v circle -c black
n -t * -s 6  -x 300 -y 453 -Z 0 -z 30  -v circle -c black
n -t * -s 7  -x 350 -y 105 -Z 0 -z 30  -v circle -c black
V -t * -v 1.0a5 -a 0
W -t * -x 500 -y 500
A -t * -n 1 -p 0 -o 0xffffffff -c 31 -a 1
A -t * -h 1 -m 2147483647 -s 0
+ -t 0.000000000 -s 0 -d -1 -p AODV -e 44 -c 2 -a 0 -i 0 -k RTR 
- -t 0.000000000 -s 0 -d -1 -p AODV -e 44 -c 2 -a 0 -i 0 -k RTR
h -t 0.000000000 -s 0 -d -1 -p AODV -e 44 -c 2 -a 0 -i 0 -k RTR
+ -t 0.000000000 -s 1 -d -1 -p AODV -e 44 -c 2 -a 0 -i 0 -k RTR 
- -t 0.000000000 -s 1 -d -1 -p AODV -e 44 -c 2 -a 0 -i 0 -k RTR
h -t 0.000000000 -s 1 -d -1 -p AODV -e 44 -c 2 -a 0 -i 0 -k RTR
+ -t 0.000000000 -s 2 -d -1 -p AODV -e 44 -c 2 -a 0 -i 0 -k RTR 
- -t 0.000000000 -s 2 -d -1 -p AODV -e 44 -c 2 -a 0 -i 0 -k RTR
h -t 0.000000000 -s 2 -d -1 -p AODV -e 44 -c 2 -a 0 -i 0 -k RTR
+ -t 0.000000000 -s 3 -d -1 -p AODV -e 44 -c 2 -a 0 -i 0 -k RTR 
- -t 0.000000000 -s 3 -d -1 -p AODV -e 44 -c 2 -a 0 -i 0 -k RTR
h -t 0.000000000 -s 3 -d -1 -p AODV -e 44 -c 2 -a 0 -i 0 -k RTR
+ -t 0.000000000 -s 4 -d -1 -p AODV -e 44 -c 2 -a 0 -i 0 -k RTR 
- -t 0.000000000 -s 4 -d -1 -p AODV -e 44 -c 2 -a 0 -i 0 -k RTR
h -t 0.000000000 -s 4 -d -1 -p AODV -e 44 -c 2 -a 0 -i 0 -k RTR
+ -t 0.000000000 -s 5 -d -1 -p AODV -e 44 -c 2 -a 0 -i 0 -k RTR 
- -t 0.000000000 -s 5 -d -1 -p AODV -e 44 -c 2 -a 0 -i 0 -k RTR
h -t 0.000000000 -s 5 -d -1 -p AODV -e 44 -c 2 -a 0 -i 0 -k RTR
+ -t 0.000000000 -s 6 -d -1 -p AODV -e 44 -c 2 -a 0 -i 0 -k RTR 
- -t 0.000000000 -s 6 -d -1 -p AODV -e 44 -c 2 -a 0 -i 0 -k RTR
h -t 0.000000000 -s 6 -d -1 -p AODV -e 44 -c 2 -a 0 -i 0 -k RTR
+ -t 0.000000000 -s 7 -d -1 -p AODV -e 44 -c 2 -a 0 -i 0 -k RTR 
- -t 0.000000000 -s 7 -d -1 -p AODV -e 44 -c 2 -a 0 -i 0 -k RTR
h -t 0.000000000 -s 7 -d -1 -p AODV -e 44 -c 2 -a 0 -i 0 -k RTR
r -t 0.000908636 -s 3 -d -1 -p AODV -e 44 -c 2 -a 0 -i 0 -k RTR
+ -t 0.000908636 -s 3 -d 4 -p AODV -e 26 -c 2 -a 0 -i 0 -k RTR 
- -t 0.000908636 -s 3 -d 4 -p AODV -e 26 -c 2 -a 0 -i 0 -k RTR
h -t 0.000908636 -s 3 -d 4 -p AODV -e 26 -c 2 -a 0 -i 0 -k RTR
r -t 0.000908708 -s 5 -d -1 -p AODV -e 44 -c 2 -a 0 -i 0 -k RTR
+ -t 0.000908708 -s 5 -d 4 -p AODV -e 26 -c 2 -a 0 -i 0 -k RTR 
- -t 0.000908708 -s 5 -d 4 -p AODV -e 26 -c 2 -a 0 -i 0 -k RTR
h -t 0.000908708 -s 5 -d 4 -p AODV -e 26 -c 2 -a 0 -i 0 -k RTR
r -t 0.000908756 -s 2 -d -1 -p AODV -e 44 -c 2 -a 0 -i 0 -k RTR
+ -t 0.000908756 -s 2 -d 4 -p AODV -e 26 -c 2 -a 0 -i 0 -k RTR 
- -t 0.000908756 -s 2 -d 4 -p AODV -e 26 -c 2 -a 0 -i 0 -k RTR
h -t 0.000908756 -s 2 -d 4 -p AODV -e 26 -c 2 -a 0 -i 0 -k RTR
r -t 0.000908787 -s 6 -d -1 -p AODV -e 44 -c 2 -a 0 -i 0 -k RTR
+ -t 0.000908787 -s 6 -d 4 -p AODV -e 26 -c 2 -a 0 -i 0 -k RTR 
- -t 0.000908787 -s 6 -d 4 -p AODV -e 26 -c 2 -a 0 -i 0 -k RTR
h -t 0.000908787 -s 6 -d 4 -p AODV -e 26 -c 2 -a 0 -i 0 -k RTR
r -t 0.000908826 -s 0 -d -1 -p AODV -e 44 -c 2 -a 0 -i 0 -k RTR
+ -t 0.000908826 -s 0 -d 4 -p AODV -e 26 -c 2 -a 0 -i 0 -k RTR 
- -t 0.000908826 -s 0 -d 4 -p AODV -e 26 -c 2 -a 0 -i 0 -k RTR
h -t 0.000908826 -s 0 -d 4 -p AODV -e 26 -c 2 -a 0 -i 0 -k RTR
r -t 0.001847121 -s 3 -d -1 -p AODV -e 44 -c 2 -a 0 -i 0 -k RTR
+ -t 0.001847121 -s 3 -d 6 -p AODV -e 26 -c 2 -a 0 -i 0 -k RTR 
- -t 0.001847121 -s 3 -d 6 -p AODV -e 26 -c 2 -a 0 -i 0 -k RTR
h -t 0.001847121 -s 3 -d 6 -p AODV -e 26 -c 2 -a 0 -i 0 -k RTR
r -t 0.001847265 -s 2 -d -1 -p AODV -e 44 -c 2 -a 0 -i 0 -k RTR
+ -t 0.001847265 -s 2 -d 6 -p AODV -e 26 -c 2 -a 0 -i 0 -k RTR 
- -t 0.001847265 -s 2 -d 6 -p AODV -e 26 -c 2 -a 0 -i 0 -k RTR
h -t 0.001847265 -s 2 -d 6 -p AODV -e 26 -c 2 -a 0 -i 0 -k RTR
r -t 0.001847574 -s 4 -d -1 -p AODV -e 44 -c 2 -a 0 -i 0 -k RTR
+ -t 0.001847574 -s 4 -d 6 -p AODV -e 26 -c 2 -a 0 -i 0 -k RTR 
- -t 0.001847574 -s 4 -d 6 -p AODV -e 26 -c 2 -a 0 -i 0 -k RTR
h -t 0.001847574 -s 4 -d 6 -p AODV -e 26 -c 2 -a 0 -i 0 -k RTR
r -t 0.002745455 -s 6 -d -1 -p AODV -e 44 -c 2 -a 0 -i 0 -k RTR
+ -t 0.002745455 -s 6 -d 3 -p AODV -e 26 -c 2 -a 0 -i 0 -k RTR 
- -t 0.002745455 -s 6 -d 3 -p AODV -e 26 -c 2 -a 0 -i 0 -k RTR
h -t 0.002745455 -s 6 -d 3 -p AODV -e 26 -c 2 -a 0 -i 0 -k RTR
r -t 0.002745757 -s 4 -d -1 -p AODV -e 44 -c 2 -a 0 -i 0 -k RTR
+ -t 0.002745757 -s 4 -d 3 -p AODV -e 26 -c 2 -a 0 -i 0 -k RTR 
- -t 0.002745757 -s 4 -d 3 -p AODV -e 26 -c 2 -a 0 -i 0 -k RTR
h -t 0.002745757 -s 4 -d 3 -p AODV -e 26 -c 2 -a 0 -i 0 -k RTR
r -t 0.002745828 -s 2 -d -1 -p AODV -e 44 -c 2 -a 0 -i 0 -k RTR
+ -t 0.002745828 -s 2 -d 3 -p AODV -e 26 -c 2 -a 0 -i 0 -k RTR 
- -t 0.002745828 -s 2 -d 3 -p AODV -e 26 -c 2 -a 0 -i 0 -k RTR
h -t 0.002745828 -s 2 -d 3 -p AODV -e 26 -c 2 -a 0 -i 0 -k RTR
r -t 0.003584260 -s 0 -d -1 -p AODV -e 44 -c 2 -a 0 -i 0 -k RTR
+ -t 0.003584260 -s 0 -d 2 -p AODV -e 26 -c 2 -a 0 -i 0 -k RTR 
- -t 0.003584260 -s 0 -d 2 -p AODV -e 26 -c 2 -a 0 -i 0 -k RTR
h -t 0.003584260 -s 0 -d 2 -p AODV -e 26 -c 2 -a 0 -i 0 -k RTR
r -t 0.003584306 -s 6 -d -1 -p AODV -e 44 -c 2 -a 0 -i 0 -k RTR
+ -t 0.003584306 -s 6 -d 2 -p AODV -e 26 -c 2 -a 0 -i 0 -k RTR 
- -t 0.003584306 -s 6 -d 2 -p AODV -e 26 -c 2 -a 0 -i 0 -k RTR
h -t 0.003584306 -s 6 -d 2 -p AODV -e 26 -c 2 -a 0 -i 0 -k RTR
r -t 0.003584524 -s 7 -d -1 -p AODV -e 44 -c 2 -a 0 -i 0 -k RTR
+ -t 0.003584524 -s 7 -d 2 -p AODV -e 26 -c 2 -a 0 -i 0 -k RTR 
- -t 0.003584524 -s 7 -d 2 -p AODV -e 26 -c 2 -a 0 -i 0 -k RTR
h -t 0.003584524 -s 7 -d 2 -p AODV -e 26 -c 2 -a 0 -i 0 -k RTR
r -t 0.003584535 -s 3 -d -1 -p AODV -e 44 -c 2 -a 0 -i 0 -k RTR
+ -t 0.003584535 -s 3 -d 2 -p AODV -e 26 -c 2 -a 0 -i 0 -k RTR 
- -t 0.003584535 -s 3 -d 2 -p AODV -e 26 -c 2 -a 0 -i 0 -k RTR
h -t 0.003584535 -s 3 -d 2 -p AODV -e 26 -c 2 -a 0 -i 0 -k RTR
r -t 0.003584584 -s 4 -d -1 -p AODV -e 44 -c 2 -a 0 -i 0 -k RTR
+ -t 0.003584584 -s 4 -d 2 -p AODV -e 26 -c 2 -a 0 -i 0 -k RTR 
- -t 0.003584584 -s 4 -d 2 -p AODV -e 26 -c 2 -a 0 -i 0 -k RTR
h -t 0.003584584 -s 4 -d 2 -p AODV -e 26 -c 2 -a 0 -i 0 -k RTR
r -t 0.007905790 -s 7 -d -1 -p AODV -e 44 -c 2 -a 0 -i 0 -k RTR
+ -t 0.007905790 -s 7 -d 0 -p AODV -e 26 -c 2 -a 0 -i 0 -k RTR 
- -t 0.007905790 -s 7 -d 0 -p AODV -e 26 -c 2 -a 0 -i 0 -k RTR
h -t 0.007905790 -s 7 -d 0 -p AODV -e 26 -c 2 -a 0 -i 0 -k RTR
r -t 0.007905847 -s 2 -d -1 -p AODV -e 44 -c 2 -a 0 -i 0 -k RTR
+ -t 0.007905847 -s 2 -d 0 -p AODV -e 26 -c 2 -a 0 -i 0 -k RTR 
- -t 0.007905847 -s 2 -d 0 -p AODV -e 26 -c 2 -a 0 -i 0 -k RTR
h -t 0.007905847 -s 2 -d 0 -p AODV -e 26 -c 2 -a 0 -i 0 -k RTR
r -t 0.007905976 -s 1 -d -1 -p AODV -e 44 -c 2 -a 0 -i 0 -k RTR
+ -t 0.007905976 -s 1 -d 0 -p AODV -e 26 -c 2 -a 0 -i 0 -k RTR 
- -t 0.007905976 -s 1 -d 0 -p AODV -e 26 -c 2 -a 0 -i 0 -k RTR
h -t 0.007905976 -s 1 -d 0 -p AODV -e 26 -c 2 -a 0 -i 0 -k RTR
r -t 0.007906216 -s 5 -d -1 -p AODV -e 44 -c 2 -a 0 -i 0 -k RTR
+ -t 0.007906216 -s 5 -d 0 -p AODV -e 26 -c 2 -a 0 -i 0 -k RTR 
- -t 0.007906216 -s 5 -d 0 -p AODV -e 26 -c 2 -a 0 -i 0 -k RTR
h -t 0.007906216 -s 5 -d 0 -p AODV -e 26 -c 2 -a 0 -i 0 -k RTR
r -t 0.007906241 -s 4 -d -1 -p AODV -e 44 -c 2 -a 0 -i 0 -k RTR
+ -t 0.007906241 -s 4 -d 0 -p AODV -e 26 -c 2 -a 0 -i 0 -k RTR 
- -t 0.007906241 -s 4 -d 0 -p AODV -e 26 -c 2 -a 0 -i 0 -k RTR
h -t 0.007906241 -s 4 -d 0 -p AODV -e 26 -c 2 -a 0 -i 0 -k RTR
r -t 0.011507342 -s 1 -d -1 -p AODV -e 44 -c 2 -a 0 -i 0 -k RTR
+ -t 0.011507342 -s 1 -d 7 -p AODV -e 26 -c 2 -a 0 -i 0 -k RTR 
- -t 0.011507342 -s 1 -d 7 -p AODV -e 26 -c 2 -a 0 -i 0 -k RTR
h -t 0.011507342 -s 1 -d 7 -p AODV -e 26 -c 2 -a 0 -i 0 -k RTR
r -t 0.011507531 -s 0 -d -1 -p AODV -e 44 -c 2 -a 0 -i 0 -k RTR
+ -t 0.011507531 -s 0 -d 7 -p AODV -e 26 -c 2 -a 0 -i 0 -k RTR 
- -t 0.011507531 -s 0 -d 7 -p AODV -e 26 -c 2 -a 0 -i 0 -k RTR
h -t 0.011507531 -s 0 -d 7 -p AODV -e 26 -c 2 -a 0 -i 0 -k RTR
r -t 0.011507852 -s 2 -d -1 -p AODV -e 44 -c 2 -a 0 -i 0 -k RTR
+ -t 0.011507852 -s 2 -d 7 -p AODV -e 26 -c 2 -a 0 -i 0 -k RTR 
- -t 0.011507852 -s 2 -d 7 -p AODV -e 26 -c 2 -a 0 -i 0 -k RTR
h -t 0.011507852 -s 2 -d 7 -p AODV -e 26 -c 2 -a 0 -i 0 -k RTR
r -t 0.015857396 -s 7 -d -1 -p AODV -e 44 -c 2 -a 0 -i 0 -k RTR
+ -t 0.015857396 -s 7 -d 1 -p AODV -e 26 -c 2 -a 0 -i 0 -k RTR 
- -t 0.015857396 -s 7 -d 1 -p AODV -e 26 -c 2 -a 0 -i 0 -k RTR
h -t 0.015857396 -s 7 -d 1 -p AODV -e 26 -c 2 -a 0 -i 0 -k RTR
r -t 0.015857770 -s 0 -d -1 -p AODV -e 44 -c 2 -a 0 -i 0 -k RTR
+ -t 0.015857770 -s 0 -d 1 -p AODV -e 26 -c 2 -a 0 -i 0 -k RTR 
- -t 0.015857770 -s 0 -d 1 -p AODV -e 26 -c 2 -a 0 -i 0 -k RTR
h -t 0.015857770 -s 0 -d 1 -p AODV -e 26 -c 2 -a 0 -i 0 -k RTR
+ -t 0.750169789 -s 0 -d -1 -p AODV -e 44 -c 2 -a 0 -i 0 -k RTR 
- -t 0.750169789 -s 0 -d -1 -p AODV -e 44 -c 2 -a 0 -i 0 -k RTR
h -t 0.750169789 -s 0 -d -1 -p AODV -e 44 -c 2 -a 0 -i 0 -k RTR
r -t 0.751038163 -s 7 -d -1 -p AODV -e 44 -c 2 -a 0 -i 0 -k RTR
+ -t 0.751038163 -s 7 -d 0 -p AODV -e 26 -c 2 -a 0 -i 0 -k RTR 
- -t 0.751038163 -s 7 -d 0 -p AODV -e 26 -c 2 -a 0 -i 0 -k RTR
h -t 0.751038163 -s 7 -d 0 -p AODV -e 26 -c 2 -a 0 -i 0 -k RTR
r -t 0.751038221 -s 2 -d -1 -p AODV -e 44 -c 2 -a 0 -i 0 -k RTR
+ -t 0.751038221 -s 2 -d 0 -p AODV -e 26 -c 2 -a 0 -i 0 -k RTR 
- -t 0.751038221 -s 2 -d 0 -p AODV -e 26 -c 2 -a 0 -i 0 -k RTR
h -t 0.751038221 -s 2 -d 0 -p AODV -e 26 -c 2 -a 0 -i 0 -k RTR
r -t 0.751038350 -s 1 -d -1 -p AODV -e 44 -c 2 -a 0 -i 0 -k RTR
+ -t 0.751038350 -s 1 -d 0 -p AODV -e 26 -c 2 -a 0 -i 0 -k RTR 
- -t 0.751038350 -s 1 -d 0 -p AODV -e 26 -c 2 -a 0 -i 0 -k RTR
h -t 0.751038350 -s 1 -d 0 -p AODV -e 26 -c 2 -a 0 -i 0 -k RTR
r -t 0.751038590 -s 5 -d -1 -p AODV -e 44 -c 2 -a 0 -i 0 -k RTR
+ -t 0.751038590 -s 5 -d 0 -p AODV -e 26 -c 2 -a 0 -i 0 -k RTR 
- -t 0.751038590 -s 5 -d 0 -p AODV -e 26 -c 2 -a 0 -i 0 -k RTR
h -t 0.751038590 -s 5 -d 0 -p AODV -e 26 -c 2 -a 0 -i 0 -k RTR
r -t 0.751038615 -s 4 -d -1 -p AODV -e 44 -c 2 -a 0 -i 0 -k RTR
+ -t 0.751038615 -s 4 -d 0 -p AODV -e 26 -c 2 -a 0 -i 0 -k RTR 
- -t 0.751038615 -s 4 -d 0 -p AODV -e 26 -c 2 -a 0 -i 0 -k RTR
h -t 0.751038615 -s 4 -d 0 -p AODV -e 26 -c 2 -a 0 -i 0 -k RTR
+ -t 0.757102330 -s 2 -d -1 -p AODV -e 44 -c 2 -a 0 -i 0 -k RTR 
- -t 0.757102330 -s 2 -d -1 -p AODV -e 44 -c 2 -a 0 -i 0 -k RTR
h -t 0.757102330 -s 2 -d -1 -p AODV -e 44 -c 2 -a 0 -i 0 -k RTR
r -t 0.758941431 -s 0 -d -1 -p AODV -e 44 -c 2 -a 0 -i 0 -k RTR
+ -t 0.758941431 -s 0 -d 2 -p AODV -e 26 -c 2 -a 0 -i 0 -k RTR 
- -t 0.758941431 -s 0 -d 2 -p AODV -e 26 -c 2 -a 0 -i 0 -k RTR
h -t 0.758941431 -s 0 -d 2 -p AODV -e 26 -c 2 -a 0 -i 0 -k RTR
r -t 0.758941476 -s 6 -d -1 -p AODV -e 44 -c 2 -a 0 -i 0 -k RTR
+ -t 0.758941476 -s 6 -d 2 -p AODV -e 26 -c 2 -a 0 -i 0 -k RTR 
- -t 0.758941476 -s 6 -d 2 -p AODV -e 26 -c 2 -a 0 -i 0 -k RTR
h -t 0.758941476 -s 6 -d 2 -p AODV -e 26 -c 2 -a 0 -i 0 -k RTR
r -t 0.758941694 -s 7 -d -1 -p AODV -e 44 -c 2 -a 0 -i 0 -k RTR
+ -t 0.758941694 -s 7 -d 2 -p AODV -e 26 -c 2 -a 0 -i 0 -k RTR 
- -t 0.758941694 -s 7 -d 2 -p AODV -e 26 -c 2 -a 0 -i 0 -k RTR
h -t 0.758941694 -s 7 -d 2 -p AODV -e 26 -c 2 -a 0 -i 0 -k RTR
r -t 0.758941705 -s 3 -d -1 -p AODV -e 44 -c 2 -a 0 -i 0 -k RTR
+ -t 0.758941705 -s 3 -d 2 -p AODV -e 26 -c 2 -a 0 -i 0 -k RTR 
- -t 0.758941705 -s 3 -d 2 -p AODV -e 26 -c 2 -a 0 -i 0 -k RTR
h -t 0.758941705 -s 3 -d 2 -p AODV -e 26 -c 2 -a 0 -i 0 -k RTR
r -t 0.758941754 -s 4 -d -1 -p AODV -e 44 -c 2 -a 0 -i 0 -k RTR
+ -t 0.758941754 -s 4 -d 2 -p AODV -e 26 -c 2 -a 0 -i 0 -k RTR 
- -t 0.758941754 -s 4 -d 2 -p AODV -e 26 -c 2 -a 0 -i 0 -k RTR
h -t 0.758941754 -s 4 -d 2 -p AODV -e 26 -c 2 -a 0 -i 0 -k RTR
+ -t 0.794061336 -s 3 -d -1 -p AODV -e 44 -c 2 -a 0 -i 0 -k RTR 
- -t 0.794061336 -s 3 -d -1 -p AODV -e 44 -c 2 -a 0 -i 0 -k RTR
h -t 0.794061336 -s 3 -d -1 -p AODV -e 44 -c 2 -a 0 -i 0 -k RTR
r -t 0.795049670 -s 6 -d -1 -p AODV -e 44 -c 2 -a 0 -i 0 -k RTR
+ -t 0.795049670 -s 6 -d 3 -p AODV -e 26 -c 2 -a 0 -i 0 -k RTR 
- -t 0.795049670 -s 6 -d 3 -p AODV -e 26 -c 2 -a 0 -i 0 -k RTR
h -t 0.795049670 -s 6 -d 3 -p AODV -e 26 -c 2 -a 0 -i 0 -k RTR
r -t 0.795049972 -s 4 -d -1 -p AODV -e 44 -c 2 -a 0 -i 0 -k RTR
+ -t 0.795049972 -s 4 -d 3 -p AODV -e 26 -c 2 -a 0 -i 0 -k RTR 
- -t 0.795049972 -s 4 -d 3 -p AODV -e 26 -c 2 -a 0 -i 0 -k RTR
h -t 0.795049972 -s 4 -d 3 -p AODV -e 26 -c 2 -a 0 -i 0 -k RTR
r -t 0.795050043 -s 2 -d -1 -p AODV -e 44 -c 2 -a 0 -i 0 -k RTR
+ -t 0.795050043 -s 2 -d 3 -p AODV -e 26 -c 2 -a 0 -i 0 -k RTR 
- -t 0.795050043 -s 2 -d 3 -p AODV -e 26 -c 2 -a 0 -i 0 -k RTR
h -t 0.795050043 -s 2 -d 3 -p AODV -e 26 -c 2 -a 0 -i 0 -k RTR
+ -t 0.906480886 -s 6 -d -1 -p AODV -e 44 -c 2 -a 0 -i 0 -k RTR 
- -t 0.906480886 -s 6 -d -1 -p AODV -e 44 -c 2 -a 0 -i 0 -k RTR
h -t 0.906480886 -s 6 -d -1 -p AODV -e 44 -c 2 -a 0 -i 0 -k RTR
r -t 0.907929220 -s 3 -d -1 -p AODV -e 44 -c 2 -a 0 -i 0 -k RTR
+ -t 0.907929220 -s 3 -d 6 -p AODV -e 26 -c 2 -a 0 -i 0 -k RTR 
- -t 0.907929220 -s 3 -d 6 -p AODV -e 26 -c 2 -a 0 -i 0 -k RTR
h -t 0.907929220 -s 3 -d 6 -p AODV -e 26 -c 2 -a 0 -i 0 -k RTR
r -t 0.907929364 -s 2 -d -1 -p AODV -e 44 -c 2 -a 0 -i 0 -k RTR
+ -t 0.907929364 -s 2 -d 6 -p AODV -e 26 -c 2 -a 0 -i 0 -k RTR 
- -t 0.907929364 -s 2 -d 6 -p AODV -e 26 -c 2 -a 0 -i 0 -k RTR
h -t 0.907929364 -s 2 -d 6 -p AODV -e 26 -c 2 -a 0 -i 0 -k RTR
r -t 0.907929673 -s 4 -d -1 -p AODV -e 44 -c 2 -a 0 -i 0 -k RTR
+ -t 0.907929673 -s 4 -d 6 -p AODV -e 26 -c 2 -a 0 -i 0 -k RTR 
- -t 0.907929673 -s 4 -d 6 -p AODV -e 26 -c 2 -a 0 -i 0 -k RTR
h -t 0.907929673 -s 4 -d 6 -p AODV -e 26 -c 2 -a 0 -i 0 -k RTR
+ -t 0.970586691 -s 4 -d -1 -p AODV -e 44 -c 2 -a 0 -i 0 -k RTR 
- -t 0.970586691 -s 4 -d -1 -p AODV -e 44 -c 2 -a 0 -i 0 -k RTR
h -t 0.970586691 -s 4 -d -1 -p AODV -e 44 -c 2 -a 0 -i 0 -k RTR
r -t 0.971455327 -s 3 -d -1 -p AODV -e 44 -c 2 -a 0 -i 0 -k RTR
+ -t 0.971455327 -s 3 -d 4 -p AODV -e 26 -c 2 -a 0 -i 0 -k RTR 
- -t 0.971455327 -s 3 -d 4 -p AODV -e 26 -c 2 -a 0 -i 0 -k RTR
h -t 0.971455327 -s 3 -d 4 -p AODV -e 26 -c 2 -a 0 -i 0 -k RTR
r -t 0.971455399 -s 5 -d -1 -p AODV -e 44 -c 2 -a 0 -i 0 -k RTR
+ -t 0.971455399 -s 5 -d 4 -p AODV -e 26 -c 2 -a 0 -i 0 -k RTR 
- -t 0.971455399 -s 5 -d 4 -p AODV -e 26 -c 2 -a 0 -i 0 -k RTR
h -t 0.971455399 -s 5 -d 4 -p AODV -e 26 -c 2 -a 0 -i 0 -k RTR
r -t 0.971455447 -s 2 -d -1 -p AODV -e 44 -c 2 -a 0 -i 0 -k RTR
+ -t 0.971455447 -s 2 -d 4 -p AODV -e 26 -c 2 -a 0 -i 0 -k RTR 
- -t 0.971455447 -s 2 -d 4 -p AODV -e 26 -c 2 -a 0 -i 0 -k RTR
h -t 0.971455447 -s 2 -d 4 -p AODV -e 26 -c 2 -a 0 -i 0 -k RTR
r -t 0.971455478 -s 6 -d -1 -p AODV -e 44 -c 2 -a 0 -i 0 -k RTR
+ -t 0.971455478 -s 6 -d 4 -p AODV -e 26 -c 2 -a 0 -i 0 -k RTR 
- -t 0.971455478 -s 6 -d 4 -p AODV -e 26 -c 2 -a 0 -i 0 -k RTR
h -t 0.971455478 -s 6 -d 4 -p AODV -e 26 -c 2 -a 0 -i 0 -k RTR
r -t 0.971455517 -s 0 -d -1 -p AODV -e 44 -c 2 -a 0 -i 0 -k RTR
+ -t 0.971455517 -s 0 -d 4 -p AODV -e 26 -c 2 -a 0 -i 0 -k RTR 
- -t 0.971455517 -s 0 -d 4 -p AODV -e 26 -c 2 -a 0 -i 0 -k RTR
h -t 0.971455517 -s 0 -d 4 -p AODV -e 26 -c 2 -a 0 -i 0 -k RTR
+ -t 1.027940358 -s 1 -d -1 -p AODV -e 44 -c 2 -a 0 -i 0 -k RTR 
- -t 1.027940358 -s 1 -d -1 -p AODV -e 44 -c 2 -a 0 -i 0 -k RTR
h -t 1.027940358 -s 1 -d -1 -p AODV -e 44 -c 2 -a 0 -i 0 -k RTR
r -t 1.029228545 -s 7 -d -1 -p AODV -e 44 -c 2 -a 0 -i 0 -k RTR
+ -t 1.029228545 -s 7 -d 1 -p AODV -e 26 -c 2 -a 0 -i 0 -k RTR 
- -t 1.029228545 -s 7 -d 1 -p AODV -e 26 -c 2 -a 0 -i 0 -k RTR
h -t 1.029228545 -s 7 -d 1 -p AODV -e 26 -c 2 -a 0 -i 0 -k RTR
r -t 1.029228919 -s 0 -d -1 -p AODV -e 44 -c 2 -a 0 -i 0 -k RTR
+ -t 1.029228919 -s 0 -d 1 -p AODV -e 26 -c 2 -a 0 -i 0 -k RTR 
- -t 1.029228919 -s 0 -d 1 -p AODV -e 26 -c 2 -a 0 -i 0 -k RTR
h -t 1.029228919 -s 0 -d 1 -p AODV -e 26 -c 2 -a 0 -i 0 -k RTR
+ -t 1.149577727 -s 5 -d -1 -p AODV -e 44 -c 2 -a 0 -i 0 -k RTR 
- -t 1.149577727 -s 5 -d -1 -p AODV -e 44 -c 2 -a 0 -i 0 -k RTR
h -t 1.149577727 -s 5 -d -1 -p AODV -e 44 -c 2 -a 0 -i 0 -k RTR
r -t 1.150826435 -s 4 -d -1 -p AODV -e 44 -c 2 -a 0 -i 0 -k RTR
+ -t 1.150826435 -s 4 -d 5 -p AODV -e 26 -c 2 -a 0 -i 0 -k RTR 
- -t 1.150826435 -s 4 -d 5 -p AODV -e 26 -c 2 -a 0 -i 0 -k RTR
h -t 1.150826435 -s 4 -d 5 -p AODV -e 26 -c 2 -a 0 -i 0 -k RTR
r -t 1.150826528 -s 0 -d -1 -p AODV -e 44 -c 2 -a 0 -i 0 -k RTR
+ -t 1.150826528 -s 0 -d 5 -p AODV -e 26 -c 2 -a 0 -i 0 -k RTR 
- -t 1.150826528 -s 0 -d 5 -p AODV -e 26 -c 2 -a 0 -i 0 -k RTR
h -t 1.150826528 -s 0 -d 5 -p AODV -e 26 -c 2 -a 0 -i 0 -k RTR
+ -t 1.158238026 -s 7 -d -1 -p AODV -e 44 -c 2 -a 0 -i 0 -k RTR 
- -t 1.158238026 -s 7 -d -1 -p AODV -e 44 -c 2 -a 0 -i 0 -k RTR
h -t 1.158238026 -s 7 -d -1 -p AODV -e 44 -c 2 -a 0 -i 0 -k RTR
r -t 1.159286212 -s 1 -d -1 -p AODV -e 44 -c 2 -a 0 -i 0 -k RTR
+ -t 1.159286212 -s 1 -d 7 -p AODV -e 26 -c 2 -a 0 -i 0 -k RTR 
- -t 1.159286212 -s 1 -d 7 -p AODV -e 26 -c 2 -a 0 -i 0 -k RTR
h -t 1.159286212 -s 1 -d 7 -p AODV -e 26 -c 2 -a 0 -i 0 -k RTR
r -t 1.159286401 -s 0 -d -1 -p AODV -e 44 -c 2 -a 0 -i 0 -k RTR
+ -t 1.159286401 -s 0 -d 7 -p AODV -e 26 -c 2 -a 0 -i 0 -k RTR 
- -t 1.159286401 -s 0 -d 7 -p AODV -e 26 -c 2 -a 0 -i 0 -k RTR
h -t 1.159286401 -s 0 -d 7 -p AODV -e 26 -c 2 -a 0 -i 0 -k RTR
r -t 1.159286722 -s 2 -d -1 -p AODV -e 44 -c 2 -a 0 -i 0 -k RTR
+ -t 1.159286722 -s 2 -d 7 -p AODV -e 26 -c 2 -a 0 -i 0 -k RTR 
- -t 1.159286722 -s 2 -d 7 -p AODV -e 26 -c 2 -a 0 -i 0 -k RTR
h -t 1.159286722 -s 2 -d 7 -p AODV -e 26 -c 2 -a 0 -i 0 -k RTR
+ -t 1.532169033 -s 2 -d -1 -p AODV -e 44 -c 2 -a 0 -i 0 -k RTR 
- -t 1.532169033 -s 2 -d -1 -p AODV -e 44 -c 2 -a 0 -i 0 -k RTR
h -t 1.532169033 -s 2 -d -1 -p AODV -e 44 -c 2 -a 0 -i 0 -k RTR
r -t 1.533617465 -s 0 -d -1 -p AODV -e 44 -c 2 -a 0 -i 0 -k RTR
+ -t 1.533617465 -s 0 -d 2 -p AODV -e 26 -c 2 -a 0 -i 0 -k RTR 
- -t 1.533617465 -s 0 -d 2 -p AODV -e 26 -c 2 -a 0 -i 0 -k RTR
h -t 1.533617465 -s 0 -d 2 -p AODV -e 26 -c 2 -a 0 -i 0 -k RTR
r -t 1.533617511 -s 6 -d -1 -p AODV -e 44 -c 2 -a 0 -i 0 -k RTR
+ -t 1.533617511 -s 6 -d 2 -p AODV -e 26 -c 2 -a 0 -i 0 -k RTR 
- -t 1.533617511 -s 6 -d 2 -p AODV -e 26 -c 2 -a 0 -i 0 -k RTR
h -t 1.533617511 -s 6 -d 2 -p AODV -e 26 -c 2 -a 0 -i 0 -k RTR
r -t 1.533617729 -s 7 -d -1 -p AODV -e 44 -c 2 -a 0 -i 0 -k RTR
+ -t 1.533617729 -s 7 -d 2 -p AODV -e 26 -c 2 -a 0 -i 0 -k RTR 
- -t 1.533617729 -s 7 -d 2 -p AODV -e 26 -c 2 -a 0 -i 0 -k RTR
h -t 1.533617729 -s 7 -d 2 -p AODV -e 26 -c 2 -a 0 -i 0 -k RTR
r -t 1.533617740 -s 3 -d -1 -p AODV -e 44 -c 2 -a 0 -i 0 -k RTR
+ -t 1.533617740 -s 3 -d 2 -p AODV -e 26 -c 2 -a 0 -i 0 -k RTR 
- -t 1.533617740 -s 3 -d 2 -p AODV -e 26 -c 2 -a 0 -i 0 -k RTR
h -t 1.533617740 -s 3 -d 2 -p AODV -e 26 -c 2 -a 0 -i 0 -k RTR
r -t 1.533617789 -s 4 -d -1 -p AODV -e 44 -c 2 -a 0 -i 0 -k RTR
+ -t 1.533617789 -s 4 -d 2 -p AODV -e 26 -c 2 -a 0 -i 0 -k RTR 
- -t 1.533617789 -s 4 -d 2 -p AODV -e 26 -c 2 -a 0 -i 0 -k RTR
h -t 1.533617789 -s 4 -d 2 -p AODV -e 26 -c 2 -a 0 -i 0 -k RTR
+ -t 1.663828288 -s 0 -d -1 -p AODV -e 44 -c 2 -a 0 -i 0 -k RTR 
- -t 1.663828288 -s 0 -d -1 -p AODV -e 44 -c 2 -a 0 -i 0 -k RTR
h -t 1.663828288 -s 0 -d -1 -p AODV -e 44 -c 2 -a 0 -i 0 -k RTR
r -t 1.664816663 -s 7 -d -1 -p AODV -e 44 -c 2 -a 0 -i 0 -k RTR
+ -t 1.664816663 -s 7 -d 0 -p AODV -e 26 -c 2 -a 0 -i 0 -k RTR 
- -t 1.664816663 -s 7 -d 0 -p AODV -e 26 -c 2 -a 0 -i 0 -k RTR
h -t 1.664816663 -s 7 -d 0 -p AODV -e 26 -c 2 -a 0 -i 0 -k RTR
r -t 1.664816721 -s 2 -d -1 -p AODV -e 44 -c 2 -a 0 -i 0 -k RTR
+ -t 1.664816721 -s 2 -d 0 -p AODV -e 26 -c 2 -a 0 -i 0 -k RTR 
- -t 1.664816721 -s 2 -d 0 -p AODV -e 26 -c 2 -a 0 -i 0 -k RTR
h -t 1.664816721 -s 2 -d 0 -p AODV -e 26 -c 2 -a 0 -i 0 -k RTR
r -t 1.664816849 -s 1 -d -1 -p AODV -e 44 -c 2 -a 0 -i 0 -k RTR
+ -t 1.664816849 -s 1 -d 0 -p AODV -e 26 -c 2 -a 0 -i 0 -k RTR 
- -t 1.664816849 -s 1 -d 0 -p AODV -e 26 -c 2 -a 0 -i 0 -k RTR
h -t 1.664816849 -s 1 -d 0 -p AODV -e 26 -c 2 -a 0 -i 0 -k RTR
r -t 1.664817090 -s 5 -d -1 -p AODV -e 44 -c 2 -a 0 -i 0 -k RTR
+ -t 1.664817090 -s 5 -d 0 -p AODV -e 26 -c 2 -a 0 -i 0 -k RTR 
- -t 1.664817090 -s 5 -d 0 -p AODV -e 26 -c 2 -a 0 -i 0 -k RTR
h -t 1.664817090 -s 5 -d 0 -p AODV -e 26 -c 2 -a 0 -i 0 -k RTR
r -t 1.664817115 -s 4 -d -1 -p AODV -e 44 -c 2 -a 0 -i 0 -k RTR
+ -t 1.664817115 -s 4 -d 0 -p AODV -e 26 -c 2 -a 0 -i 0 -k RTR 
- -t 1.664817115 -s 4 -d 0 -p AODV -e 26 -c 2 -a 0 -i 0 -k RTR
h -t 1.664817115 -s 4 -d 0 -p AODV -e 26 -c 2 -a 0 -i 0 -k RTR
+ -t 1.722261825 -s 4 -d -1 -p AODV -e 44 -c 2 -a 0 -i 0 -k RTR 
- -t 1.722261825 -s 4 -d -1 -p AODV -e 44 -c 2 -a 0 -i 0 -k RTR
h -t 1.722261825 -s 4 -d -1 -p AODV -e 44 -c 2 -a 0 -i 0 -k RTR
r -t 1.723690462 -s 3 -d -1 -p AODV -e 44 -c 2 -a 0 -i 0 -k RTR
+ -t 1.723690462 -s 3 -d 4 -p AODV -e 26 -c 2 -a 0 -i 0 -k RTR 
- -t 1.723690462 -s 3 -d 4 -p AODV -e 26 -c 2 -a 0 -i 0 -k RTR
h -t 1.723690462 -s 3 -d 4 -p AODV -e 26 -c 2 -a 0 -i 0 -k RTR
r -t 1.723690533 -s 5 -d -1 -p AODV -e 44 -c 2 -a 0 -i 0 -k RTR
+ -t 1.723690533 -s 5 -d 4 -p AODV -e 26 -c 2 -a 0 -i 0 -k RTR 
- -t 1.723690533 -s 5 -d 4 -p AODV -e 26 -c 2 -a 0 -i 0 -k RTR
h -t 1.723690533 -s 5 -d 4 -p AODV -e 26 -c 2 -a 0 -i 0 -k RTR
r -t 1.723690581 -s 2 -d -1 -p AODV -e 44 -c 2 -a 0 -i 0 -k RTR
+ -t 1.723690581 -s 2 -d 4 -p AODV -e 26 -c 2 -a 0 -i 0 -k RTR 
- -t 1.723690581 -s 2 -d 4 -p AODV -e 26 -c 2 -a 0 -i 0 -k RTR
h -t 1.723690581 -s 2 -d 4 -p AODV -e 26 -c 2 -a 0 -i 0 -k RTR
r -t 1.723690612 -s 6 -d -1 -p AODV -e 44 -c 2 -a 0 -i 0 -k RTR
+ -t 1.723690612 -s 6 -d 4 -p AODV -e 26 -c 2 -a 0 -i 0 -k RTR 
- -t 1.723690612 -s 6 -d 4 -p AODV -e 26 -c 2 -a 0 -i 0 -k RTR
h -t 1.723690612 -s 6 -d 4 -p AODV -e 26 -c 2 -a 0 -i 0 -k RTR
r -t 1.723690652 -s 0 -d -1 -p AODV -e 44 -c 2 -a 0 -i 0 -k RTR
+ -t 1.723690652 -s 0 -d 4 -p AODV -e 26 -c 2 -a 0 -i 0 -k RTR 
- -t 1.723690652 -s 0 -d 4 -p AODV -e 26 -c 2 -a 0 -i 0 -k RTR
h -t 1.723690652 -s 0 -d 4 -p AODV -e 26 -c 2 -a 0 -i 0 -k RTR
+ -t 1.843282809 -s 6 -d -1 -p AODV -e 44 -c 2 -a 0 -i 0 -k RTR 
- -t 1.843282809 -s 6 -d -1 -p AODV -e 44 -c 2 -a 0 -i 0 -k RTR
h -t 1.843282809 -s 6 -d -1 -p AODV -e 44 -c 2 -a 0 -i 0 -k RTR
r -t 1.844531143 -s 3 -d -1 -p AODV -e 44 -c 2 -a 0 -i 0 -k RTR
+ -t 1.844531143 -s 3 -d 6 -p AODV -e 26 -c 2 -a 0 -i 0 -k RTR 
- -t 1.844531143 -s 3 -d 6 -p AODV -e 26 -c 2 -a 0 -i 0 -k RTR
h -t 1.844531143 -s 3 -d 6 -p AODV -e 26 -c 2 -a 0 -i 0 -k RTR
r -t 1.844531287 -s 2 -d -1 -p AODV -e 44 -c 2 -a 0 -i 0 -k RTR
+ -t 1.844531287 -s 2 -d 6 -p AODV -e 26 -c 2 -a 0 -i 0 -k RTR 
- -t 1.844531287 -s 2 -d 6 -p AODV -e 26 -c 2 -a 0 -i 0 -k RTR
h -t 1.844531287 -s 2 -d 6 -p AODV -e 26 -c 2 -a 0 -i 0 -k RTR
r -t 1.844531596 -s 4 -d -1 -p AODV -e 44 -c 2 -a 0 -i 0 -k RTR
+ -t 1.844531596 -s 4 -d 6 -p AODV -e 26 -c 2 -a 0 -i 0 -k RTR 
- -t 1.844531596 -s 4 -d 6 -p AODV -e 26 -c 2 -a 0 -i 0 -k RTR
h -t 1.844531596 -s 4 -d 6 -p AODV -e 26 -c 2 -a 0 -i 0 -k RTR
+ -t 1.945067267 -s 3 -d -1 -p AODV -e 44 -c 2 -a 0 -i 0 -k RTR 
- -t 1.945067267 -s 3 -d -1 -p AODV -e 44 -c 2 -a 0 -i 0 -k RTR
h -t 1.945067267 -s 3 -d -1 -p AODV -e 44 -c 2 -a 0 -i 0 -k RTR
r -t 1.946495601 -s 6 -d -1 -p AODV -e 44 -c 2 -a 0 -i 0 -k RTR
+ -t 1.946495601 -s 6 -d 3 -p AODV -e 26 -c 2 -a 0 -i 0 -k RTR 
- -t 1.946495601 -s 6 -d 3 -p AODV -e 26 -c 2 -a 0 -i 0 -k RTR
h -t 1.946495601 -s 6 -d 3 -p AODV -e 26 -c 2 -a 0 -i 0 -k RTR
r -t 1.946495903 -s 4 -d -1 -p AODV -e 44 -c 2 -a 0 -i 0 -k RTR
+ -t 1.946495903 -s 4 -d 3 -p AODV -e 26 -c 2 -a 0 -i 0 -k RTR 
- -t 1.946495903 -s 4 -d 3 -p AODV -e 26 -c 2 -a 0 -i 0 -k RTR
h -t 1.946495903 -s 4 -d 3 -p AODV -e 26 -c 2 -a 0 -i 0 -k RTR
r -t 1.946495974 -s 2 -d -1 -p AODV -e 44 -c 2 -a 0 -i 0 -k RTR
+ -t 1.946495974 -s 2 -d 3 -p AODV -e 26 -c 2 -a 0 -i 0 -k RTR 
- -t 1.946495974 -s 2 -d 3 -p AODV -e 26 -c 2 -a 0 -i 0 -k RTR
h -t 1.946495974 -s 2 -d 3 -p AODV -e 26 -c 2 -a 0 -i 0 -k RTR
+ -t 1.996551446 -s 1 -d -1 -p AODV -e 44 -c 2 -a 0 -i 0 -k RTR 
- -t 1.996551446 -s 1 -d -1 -p AODV -e 44 -c 2 -a 0 -i 0 -k RTR
h -t 1.996551446 -s 1 -d -1 -p AODV -e 44 -c 2 -a 0 -i 0 -k RTR
r -t 1.997519632 -s 7 -d -1 -p AODV -e 44 -c 2 -a 0 -i 0 -k RTR
+ -t 1.997519632 -s 7 -d 1 -p AODV -e 26 -c 2 -a 0 -i 0 -k RTR 
- -t 1.997519632 -s 7 -d 1 -p AODV -e 26 -c 2 -a 0 -i 0 -k RTR
h -t 1.997519632 -s 7 -d 1 -p AODV -e 26 -c 2 -a 0 -i 0 -k RTR
r -t 1.997520007 -s 0 -d -1 -p AODV -e 44 -c 2 -a 0 -i 0 -k RTR
+ -t 1.997520007 -s 0 -d 1 -p AODV -e 26 -c 2 -a 0 -i 0 -k RTR 
- -t 1.997520007 -s 0 -d 1 -p AODV -e 26 -c 2 -a 0 -i 0 -k RTR
h -t 1.997520007 -s 0 -d 1 -p AODV -e 26 -c 2 -a 0 -i 0 -k RTR
+ -t 2.026008362 -s 7 -d -1 -p AODV -e 44 -c 2 -a 0 -i 0 -k RTR 
- -t 2.026008362 -s 7 -d -1 -p AODV -e 44 -c 2 -a 0 -i 0 -k RTR
h -t 2.026008362 -s 7 -d -1 -p AODV -e 44 -c 2 -a 0 -i 0 -k RTR
r -t 2.027136549 -s 1 -d -1 -p AODV -e 44 -c 2 -a 0 -i 0 -k RTR
+ -t 2.027136549 -s 1 -d 7 -p AODV -e 26 -c 2 -a 0 -i 0 -k RTR 
- -t 2.027136549 -s 1 -d 7 -p AODV -e 26 -c 2 -a 0 -i 0 -k RTR
h -t 2.027136549 -s 1 -d 7 -p AODV -e 26 -c 2 -a 0 -i 0 -k RTR
r -t 2.027136737 -s 0 -d -1 -p AODV -e 44 -c 2 -a 0 -i 0 -k RTR
+ -t 2.027136737 -s 0 -d 7 -p AODV -e 26 -c 2 -a 0 -i 0 -k RTR 
- -t 2.027136737 -s 0 -d 7 -p AODV -e 26 -c 2 -a 0 -i 0 -k RTR
h -t 2.027136737 -s 0 -d 7 -p AODV -e 26 -c 2 -a 0 -i 0 -k RTR
r -t 2.027137058 -s 2 -d -1 -p AODV -e 44 -c 2 -a 0 -i 0 -k RTR
+ -t 2.027137058 -s 2 -d 7 -p AODV -e 26 -c 2 -a 0 -i 0 -k RTR 
- -t 2.027137058 -s 2 -d 7 -p AODV -e 26 -c 2 -a 0 -i 0 -k RTR
h -t 2.027137058 -s 2 -d 7 -p AODV -e 26 -c 2 -a 0 -i 0 -k RTR
+ -t 2.103317269 -s 5 -d -1 -p AODV -e 44 -c 2 -a 0 -i 0 -k RTR 
- -t 2.103317269 -s 5 -d -1 -p AODV -e 44 -c 2 -a 0 -i 0 -k RTR
h -t 2.103317269 -s 5 -d -1 -p AODV -e 44 -c 2 -a 0 -i 0 -k RTR
r -t 2.104645977 -s 4 -d -1 -p AODV -e 44 -c 2 -a 0 -i 0 -k RTR
+ -t 2.104645977 -s 4 -d 5 -p AODV -e 26 -c 2 -a 0 -i 0 -k RTR 
- -t 2.104645977 -s 4 -d 5 -p AODV -e 26 -c 2 -a 0 -i 0 -k RTR
h -t 2.104645977 -s 4 -d 5 -p AODV -e 26 -c 2 -a 0 -i 0 -k RTR
r -t 2.104646071 -s 0 -d -1 -p AODV -e 44 -c 2 -a 0 -i 0 -k RTR
+ -t 2.104646071 -s 0 -d 5 -p AODV -e 26 -c 2 -a 0 -i 0 -k RTR 
- -t 2.104646071 -s 0 -d 5 -p AODV -e 26 -c 2 -a 0 -i 0 -k RTR
h -t 2.104646071 -s 0 -d 5 -p AODV -e 26 -c 2 -a 0 -i 0 -k RTR
+ -t 2.311517992 -s 2 -d -1 -p AODV -e 44 -c 2 -a 0 -i 0 -k RTR 
- -t 2.311517992 -s 2 -d -1 -p AODV -e 44 -c 2 -a 0 -i 0 -k RTR
h -t 2.311517992 -s 2 -d -1 -p AODV -e 44 -c 2 -a 0 -i 0 -k RTR
r -t 2.312486424 -s 0 -d -1 -p AODV -e 44 -c 2 -a 0 -i 0 -k RTR
+ -t 2.312486424 -s 0 -d 2 -p AODV -e 26 -c 2 -a 0 -i 0 -k RTR 
- -t 2.312486424 -s 0 -d 2 -p AODV -e 26 -c 2 -a 0 -i 0 -k RTR
h -t 2.312486424 -s 0 -d 2 -p AODV -e 26 -c 2 -a 0 -i 0 -k RTR
r -t 2.312486469 -s 6 -d -1 -p AODV -e 44 -c 2 -a 0 -i 0 -k RTR
+ -t 2.312486469 -s 6 -d 2 -p AODV -e 26 -c 2 -a 0 -i 0 -k RTR 
- -t 2.312486469 -s 6 -d 2 -p AODV -e 26 -c 2 -a 0 -i 0 -k RTR
h -t 2.312486469 -s 6 -d 2 -p AODV -e 26 -c 2 -a 0 -i 0 -k RTR
r -t 2.312486688 -s 7 -d -1 -p AODV -e 44 -c 2 -a 0 -i 0 -k RTR
+ -t 2.312486688 -s 7 -d 2 -p AODV -e 26 -c 2 -a 0 -i 0 -k RTR 
- -t 2.312486688 -s 7 -d 2 -p AODV -e 26 -c 2 -a 0 -i 0 -k RTR
h -t 2.312486688 -s 7 -d 2 -p AODV -e 26 -c 2 -a 0 -i 0 -k RTR
r -t 2.312486698 -s 3 -d -1 -p AODV -e 44 -c 2 -a 0 -i 0 -k RTR
+ -t 2.312486698 -s 3 -d 2 -p AODV -e 26 -c 2 -a 0 -i 0 -k RTR 
- -t 2.312486698 -s 3 -d 2 -p AODV -e 26 -c 2 -a 0 -i 0 -k RTR
h -t 2.312486698 -s 3 -d 2 -p AODV -e 26 -c 2 -a 0 -i 0 -k RTR
r -t 2.312486747 -s 4 -d -1 -p AODV -e 44 -c 2 -a 0 -i 0 -k RTR
+ -t 2.312486747 -s 4 -d 2 -p AODV -e 26 -c 2 -a 0 -i 0 -k RTR 
- -t 2.312486747 -s 4 -d 2 -p AODV -e 26 -c 2 -a 0 -i 0 -k RTR
h -t 2.312486747 -s 4 -d 2 -p AODV -e 26 -c 2 -a 0 -i 0 -k RTR
+ -t 2.620240849 -s 6 -d -1 -p AODV -e 44 -c 2 -a 0 -i 0 -k RTR 
- -t 2.620240849 -s 6 -d -1 -p AODV -e 44 -c 2 -a 0 -i 0 -k RTR
h -t 2.620240849 -s 6 -d -1 -p AODV -e 44 -c 2 -a 0 -i 0 -k RTR
r -t 2.621329183 -s 3 -d -1 -p AODV -e 44 -c 2 -a 0 -i 0 -k RTR
+ -t 2.621329183 -s 3 -d 6 -p AODV -e 26 -c 2 -a 0 -i 0 -k RTR 
- -t 2.621329183 -s 3 -d 6 -p AODV -e 26 -c 2 -a 0 -i 0 -k RTR
h -t 2.621329183 -s 3 -d 6 -p AODV -e 26 -c 2 -a 0 -i 0 -k RTR
r -t 2.621329327 -s 2 -d -1 -p AODV -e 44 -c 2 -a 0 -i 0 -k RTR
+ -t 2.621329327 -s 2 -d 6 -p AODV -e 26 -c 2 -a 0 -i 0 -k RTR 
- -t 2.621329327 -s 2 -d 6 -p AODV -e 26 -c 2 -a 0 -i 0 -k RTR
h -t 2.621329327 -s 2 -d 6 -p AODV -e 26 -c 2 -a 0 -i 0 -k RTR
r -t 2.621329636 -s 4 -d -1 -p AODV -e 44 -c 2 -a 0 -i 0 -k RTR
+ -t 2.621329636 -s 4 -d 6 -p AODV -e 26 -c 2 -a 0 -i 0 -k RTR 
- -t 2.621329636 -s 4 -d 6 -p AODV -e 26 -c 2 -a 0 -i 0 -k RTR
h -t 2.621329636 -s 4 -d 6 -p AODV -e 26 -c 2 -a 0 -i 0 -k RTR
+ -t 2.785975519 -s 7 -d -1 -p AODV -e 44 -c 2 -a 0 -i 0 -k RTR 
- -t 2.785975519 -s 7 -d -1 -p AODV -e 44 -c 2 -a 0 -i 0 -k RTR
h -t 2.785975519 -s 7 -d -1 -p AODV -e 44 -c 2 -a 0 -i 0 -k RTR
r -t 2.787043706 -s 1 -d -1 -p AODV -e 44 -c 2 -a 0 -i 0 -k RTR
+ -t 2.787043706 -s 1 -d 7 -p AODV -e 26 -c 2 -a 0 -i 0 -k RTR 
- -t 2.787043706 -s 1 -d 7 -p AODV -e 26 -c 2 -a 0 -i 0 -k RTR
h -t 2.787043706 -s 1 -d 7 -p AODV -e 26 -c 2 -a 0 -i 0 -k RTR
r -t 2.787043894 -s 0 -d -1 -p AODV -e 44 -c 2 -a 0 -i 0 -k RTR
+ -t 2.787043894 -s 0 -d 7 -p AODV -e 26 -c 2 -a 0 -i 0 -k RTR 
- -t 2.787043894 -s 0 -d 7 -p AODV -e 26 -c 2 -a 0 -i 0 -k RTR
h -t 2.787043894 -s 0 -d 7 -p AODV -e 26 -c 2 -a 0 -i 0 -k RTR
r -t 2.787044216 -s 2 -d -1 -p AODV -e 44 -c 2 -a 0 -i 0 -k RTR
+ -t 2.787044216 -s 2 -d 7 -p AODV -e 26 -c 2 -a 0 -i 0 -k RTR 
- -t 2.787044216 -s 2 -d 7 -p AODV -e 26 -c 2 -a 0 -i 0 -k RTR
h -t 2.787044216 -s 2 -d 7 -p AODV -e 26 -c 2 -a 0 -i 0 -k RTR
+ -t 2.800890067 -s 4 -d -1 -p AODV -e 44 -c 2 -a 0 -i 0 -k RTR 
- -t 2.800890067 -s 4 -d -1 -p AODV -e 44 -c 2 -a 0 -i 0 -k RTR
h -t 2.800890067 -s 4 -d -1 -p AODV -e 44 -c 2 -a 0 -i 0 -k RTR
r -t 2.802298703 -s 3 -d -1 -p AODV -e 44 -c 2 -a 0 -i 0 -k RTR
+ -t 2.802298703 -s 3 -d 4 -p AODV -e 26 -c 2 -a 0 -i 0 -k RTR 
- -t 2.802298703 -s 3 -d 4 -p AODV -e 26 -c 2 -a 0 -i 0 -k RTR
h -t 2.802298703 -s 3 -d 4 -p AODV -e 26 -c 2 -a 0 -i 0 -k RTR
r -t 2.802298775 -s 5 -d -1 -p AODV -e 44 -c 2 -a 0 -i 0 -k RTR
+ -t 2.802298775 -s 5 -d 4 -p AODV -e 26 -c 2 -a 0 -i 0 -k RTR 