s 0.000000000 _0_ RTR  --- 0 AODV 44 [0 0 0 0] ------- [0:255 -1:255 1 0] [0x1 1 [0 2] 4.000000] (HELLO)
s 0.000000000 _1_ RTR  --- 0 AODV 44 [0 0 0 0] ------- [1:255 -1:255 1 0] [0x1 1 [1 2] 4.000000] (HELLO)
s 0.000000000 _2_ RTR  --- 0 AODV 44 [0 0 0 0] ------- [2:255 -1:255 1 0] [0x1 1 [2 2] 4.000000] (HELLO)
s 0.000000000 _3_ RTR  --- 0 AODV 44 [0 0 0 0] ------- [3:255 -1:255 1 0] [0x1 1 [3 2] 4.000000] (HELLO)
s 0.000000000 _4_ RTR  --- 0 AODV 44 [0 0 0 0] ------- [4:255 -1:255 1 0] [0x1 1 [4 2] 4.000000] (HELLO)
s 0.000000000 _5_ RTR  --- 0 AODV 44 [0 0 0 0] ------- [5:255 -1:255 1 0] [0x1 1 [5 2] 4.000000] (HELLO)
s 0.000000000 _6_ RTR  --- 0 AODV 44 [0 0 0 0] ------- [6:255 -1:255 1 0] [0x1 1 [6 2] 4.000000] (HELLO)
s 0.000000000 _7_ RTR  --- 0 AODV 44 [0 0 0 0] ------- [7:255 -1:255 1 0] [0x1 1 [7 2] 4.000000] (HELLO)
r 0.000908636 _3_ RTR  --- 0 AODV 44 [0 ffffffff 4 800] ------- [4:255 -1:255 1 0] [0x1 1 [4 2] 4.000000] (HELLO)
s 0.000908636 _3_ RTR  --- 0 AODV 26 [0 0 0 0] ------- [3:255 4:255 1 4] [0x12 0 [630590774 1041396844] 0.000000] (HELLO)
r 0.000908708 _5_ RTR  --- 0 AODV 44 [0 ffffffff 4 800] ------- [4:255 -1:255 1 0] [0x1 1 [4 2] 4.000000] (HELLO)
s 0.000908708 _5_ RTR  --- 0 AODV 26 [0 0 0 0] ------- [5:255 4:255 1 4] [0x12 0 [1667599628 1040715597] 0.000000] (HELLO)
r 0.000908756 _2_ RTR  --- 0 AODV 44 [0 ffffffff 4 800] ------- [4:255 -1:255 1 0] [0x1 1 [4 2] 4.000000] (HELLO)
s 0.000908756 _2_ RTR  --- 0 AODV 26 [0 0 0 0] ------- [2:255 4:255 1 4] [0x12 0 [1455349293 1040354440] 0.000000] (HELLO)
r 0.000908787 _6_ RTR  --- 0 AODV 44 [0 ffffffff 4 800] ------- [4:255 -1:255 1 0] [0x1 1 [4 2] 4.000000] (HELLO)
s 0.000908787 _6_ RTR  --- 0 AODV 26 [0 0 0 0] ------- [6:255 4:255 1 4] [0x12 0 [1614132897 1040155984] 0.000000] (HELLO)
r 0.000908826 _0_ RTR  --- 0 AODV 44 [0 ffffffff 4 800] ------- [4:255 -1:255 1 0] [0x1 1 [4 2] 4.000000] (HELLO)
s 0.000908826 _0_ RTR  --- 0 AODV 26 [0 0 0 0] ------- [0:255 4:255 1 4] [0x12 0 [1915364511 1039791931] 0.000000] (HELLO)
r 0.001847121 _3_ RTR  --- 0 AODV 44 [0 ffffffff 6 800] ------- [6:255 -1:255 1 0] [0x1 1 [6 2] 4.000000] (HELLO)
s 0.001847121 _3_ RTR  --- 0 AODV 26 [0 0 0 0] ------- [3:255 6:255 1 6] [0x12 0 [646319781 1045326790] 0.000000] (HELLO)
r 0.001847265 _2_ RTR  --- 0 AODV 44 [0 ffffffff 6 800] ------- [6:255 -1:255 1 0] [0x1 1 [6 2] 4.000000] (HELLO)
s 0.001847265 _2_ RTR  --- 0 AODV 26 [0 0 0 0] ------- [2:255 6:255 1 6] [0x12 0 [181341743 1043138155] 0.000000] (HELLO)
r 0.001847574 _4_ RTR  --- 0 AODV 44 [0 ffffffff 6 800] ------- [6:255 -1:255 1 0] [0x1 1 [6 2] 4.000000] (HELLO)
s 0.001847574 _4_ RTR  --- 0 AODV 26 [0 0 0 0] ------- [4:255 6:255 1 6] [0x12 0 [1614132897 1040155984] 0.000000] (HELLO)
r 0.002745455 _6_ RTR  --- 0 AODV 44 [0 ffffffff 3 800] ------- [3:255 -1:255 1 0] [0x1 1 [3 2] 4.000000] (HELLO)
s 0.002745455 _6_ RTR  --- 0 AODV 26 [0 0 0 0] ------- [6:255 3:255 1 3] [0x12 0 [646319781 1045326790] 0.000000] (HELLO)
r 0.002745757 _4_ RTR  --- 0 AODV 44 [0 ffffffff 3 800] ------- [3:255 -1:255 1 0] [0x1 1 [3 2] 4.000000] (HELLO)
s 0.002745757 _4_ RTR  --- 0 AODV 26 [0 0 0 0] ------- [4:255 3:255 1 3] [0x12 0 [630590774 1041396844] 0.000000] (HELLO)
r 0.002745828 _2_ RTR  --- 0 AODV 44 [0 ffffffff 3 800] ------- [3:255 -1:255 1 0] [0x1 1 [3 2] 4.000000] (HELLO)
s 0.002745828 _2_ RTR  --- 0 AODV 26 [0 0 0 0] ------- [2:255 3:255 1 3] [0x12 0 [-51700466 1040727611] 0.000000] (HELLO)
r 0.003584260 _0_ RTR  --- 0 AODV 44 [0 ffffffff 2 800] ------- [2:255 -1:255 1 0] [0x1 1 [2 2] 4.000000] (HELLO)
s 0.003584260 _0_ RTR  --- 0 AODV 26 [0 0 0 0] ------- [0:255 2:255 1 2] [0x12 0 [1333096014 1043704100] 0.000000] (HELLO)
r 0.003584306 _6_ RTR  --- 0 AODV 44 [0 ffffffff 2 800] ------- [2:255 -1:255 1 0] [0x1 1 [2 2] 4.000000] (HELLO)
s 0.003584306 _6_ RTR  --- 0 AODV 26 [0 0 0 0] ------- [6:255 2:255 1 2] [0x12 0 [181341743 1043138155] 0.000000] (HELLO)
r 0.003584524 _7_ RTR  --- 0 AODV 44 [0 ffffffff 2 800] ------- [2:255 -1:255 1 0] [0x1 1 [2 2] 4.000000] (HELLO)
s 0.003584524 _7_ RTR  --- 0 AODV 26 [0 0 0 0] ------- [7:255 2:255 1 2] [0x12 0 [1267556591 1040827015] 0.000000] (HELLO)
r 0.003584535 _3_ RTR  --- 0 AODV 44 [0 ffffffff 2 800] ------- [2:255 -1:255 1 0] [0x1 1 [2 2] 4.000000] (HELLO)
s 0.003584535 _3_ RTR  --- 0 AODV 26 [0 0 0 0] ------- [3:255 2:255 1 2] [0x12 0 [-51700466 1040727611] 0.000000] (HELLO)
r 0.003584584 _4_ RTR  --- 0 AODV 44 [0 ffffffff 2 800] ------- [2:255 -1:255 1 0] [0x1 1 [2 2] 4.000000] (HELLO)
s 0.003584584 _4_ RTR  --- 0 AODV 26 [0 0 0 0] ------- [4:255 2:255 1 2] [0x12 0 [1455349293 1040354440] 0.000000] (HELLO)
r 0.004956945 _6_ RTR  --- 0 AODV 26 [13a 6 4 800] ------- [4:255 6:255 1 6] [0x12 0 [1614132897 1040155984] 0.000000] (HELLO)
r 0.006663307 _4_ RTR  --- 0 AODV 26 [13a 4 6 800] ------- [6:255 4:255 1 4] [0x12 0 [1614132897 1040155984] 0.000000] (HELLO)
r 0.007905790 _7_ RTR  --- 0 AODV 44 [0 ffffffff 0 800] ------- [0:255 -1:255 1 0] [0x1 1 [0 2] 4.000000] (HELLO)
s 0.007905790 _7_ RTR  --- 0 AODV 26 [0 0 0 0] ------- [7:255 0:255 1 0] [0x12 0 [-1661380636 1044588967] 0.000000] (HELLO)
r 0.007905847 _2_ RTR  --- 0 AODV 44 [0 ffffffff 0 800] ------- [0:255 -1:255 1 0] [0x1 1 [0 2] 4.000000] (HELLO)
s 0.007905847 _2_ RTR  --- 0 AODV 26 [0 0 0 0] ------- [2:255 0:255 1 0] [0x12 0 [1333096014 1043704100] 0.000000] (HELLO)
r 0.007905976 _1_ RTR  --- 0 AODV 44 [0 ffffffff 0 800] ------- [0:255 -1:255 1 0] [0x1 1 [0 2] 4.000000] (HELLO)
s 0.007905976 _1_ RTR  --- 0 AODV 26 [0 0 0 0] ------- [1:255 0:255 1 0] [0x12 0 [717681775 1042189813] 0.000000] (HELLO)
r 0.007906216 _5_ RTR  --- 0 AODV 44 [0 ffffffff 0 800] ------- [0:255 -1:255 1 0] [0x1 1 [0 2] 4.000000] (HELLO)
s 0.007906216 _5_ RTR  --- 0 AODV 26 [0 0 0 0] ------- [5:255 0:255 1 0] [0x12 0 [-1959408283 1040010313] 0.000000] (HELLO)
r 0.007906241 _4_ RTR  --- 0 AODV 44 [0 ffffffff 0 800] ------- [0:255 -1:255 1 0] [0x1 1 [0 2] 4.000000] (HELLO)
s 0.007906241 _4_ RTR  --- 0 AODV 26 [0 0 0 0] ------- [4:255 0:255 1 0] [0x12 0 [1915364511 1039791931] 0.000000] (HELLO)
r 0.010304462 _2_ RTR  --- 0 AODV 26 [13a 2 6 800] ------- [6:255 2:255 1 2] [0x12 0 [181341743 1043138155] 0.000000] (HELLO)
r 0.011507342 _1_ RTR  --- 0 AODV 44 [0 ffffffff 7 800] ------- [7:255 -1:255 1 0] [0x1 1 [7 2] 4.000000] (HELLO)
s 0.011507342 _1_ RTR  --- 0 AODV 26 [0 0 0 0] ------- [1:255 7:255 1 7] [0x12 0 [1693302638 1047558514] 0.000000] (HELLO)
r 0.011507531 _0_ RTR  --- 0 AODV 44 [0 ffffffff 7 800] ------- [7:255 -1:255 1 0] [0x1 1 [7 2] 4.000000] (HELLO)
s 0.011507531 _0_ RTR  --- 0 AODV 26 [0 0 0 0] ------- [0:255 7:255 1 7] [0x12 0 [-1661380636 1044588967] 0.000000] (HELLO)
r 0.011507852 _2_ RTR  --- 0 AODV 44 [0 ffffffff 7 800] ------- [7:255 -1:255 1 0] [0x1 1 [7 2] 4.000000] (HELLO)
s 0.011507852 _2_ RTR  --- 0 AODV 26 [0 0 0 0] ------- [2:255 7:255 1 7] [0x12 0 [1267556591 1040827015] 0.000000] (HELLO)
r 0.012878828 _2_ RTR  --- 0 AODV 26 [13a 2 0 800] ------- [0:255 2:255 1 2] [0x12 0 [1333096014 1043704100] 0.000000] (HELLO)
r 0.014704648 _0_ RTR  --- 0 AODV 26 [13a 0 7 800] ------- [7:255 0:255 1 0] [0x12 0 [-1661380636 1044588967] 0.000000] (HELLO)
r 0.015857396 _7_ RTR  --- 0 AODV 44 [0 ffffffff 1 800] ------- [1:255 -1:255 1 0] [0x1 1 [1 2] 4.000000] (HELLO)
s 0.015857396 _7_ RTR  --- 0 AODV 26 [0 0 0 0] ------- [7:255 1:255 1 1] [0x12 0 [1693302638 1047558514] 0.000000] (HELLO)
r 0.015857770 _0_ RTR  --- 0 AODV 44 [0 ffffffff 1 800] ------- [1:255 -1:255 1 0] [0x1 1 [1 2] 4.000000] (HELLO)
s 0.015857770 _0_ RTR  --- 0 AODV 26 [0 0 0 0] ------- [0:255 1:255 1 1] [0x12 0 [717681775 1042189813] 0.000000] (HELLO)
r 0.017589485 _2_ RTR  --- 0 AODV 26 [13a 2 7 800] ------- [7:255 2:255 1 2] [0x12 0 [1267556591 1040827015] 0.000000] (HELLO)
r 0.019275041 _7_ RTR  --- 0 AODV 26 [13a 7 0 800] ------- [0:255 7:255 1 7] [0x12 0 [-1661380636 1044588967] 0.000000] (HELLO)
r 0.020981099 _1_ RTR  --- 0 AODV 26 [13a 1 0 800] ------- [0:255 1:255 1 1] [0x12 0 [717681775 1042189813] 0.000000] (HELLO)
r 0.022765659 _7_ RTR  --- 0 AODV 26 [13a 7 1 800] ------- [1:255 7:255 1 7] [0x12 0 [1693302638 1047558514] 0.000000] (HELLO)
r 0.026457241 _0_ RTR  --- 0 AODV 26 [13a 0 5 800] ------- [5:255 0:255 1 0] [0x12 0 [-1959408283 1040010313] 0.000000] (HELLO)
r 0.028184334 _2_ RTR  --- 0 AODV 26 [13a 2 4 800] ------- [4:255 2:255 1 2] [0x12 0 [1455349293 1040354440] 0.000000] (HELLO)
r 0.030089814 _3_ RTR  --- 0 AODV 26 [13a 3 6 800] ------- [6:255 3:255 1 3] [0x12 0 [646319781 1045326790] 0.000000] (HELLO)
r 0.031896641 _3_ RTR  --- 0 AODV 26 [13a 3 2 800] ------- [2:255 3:255 1 3] [0x12 0 [-51700466 1040727611] 0.000000] (HELLO)
r 0.033703757 _0_ RTR  --- 0 AODV 26 [13a 0 4 800] ------- [4:255 0:255 1 0] [0x12 0 [1915364511 1039791931] 0.000000] (HELLO)
r 0.035410683 _4_ RTR  --- 0 AODV 26 [13a 4 5 800] ------- [5:255 4:255 1 4] [0x12 0 [1667599628 1040715597] 0.000000] (HELLO)
r 0.037147132 _7_ RTR  --- 0 AODV 26 [13a 7 2 800] ------- [2:255 7:255 1 7] [0x12 0 [1267556591 1040827015] 0.000000] (HELLO)
r 0.038931692 _1_ RTR  --- 0 AODV 26 [13a 1 7 800] ------- [7:255 1:255 1 1] [0x12 0 [1693302638 1047558514] 0.000000] (HELLO)
r 0.040677375 _0_ RTR  --- 0 AODV 26 [13a 0 1 800] ------- [1:255 0:255 1 0] [0x12 0 [717681775 1042189813] 0.000000] (HELLO)
r 0.042412963 _0_ RTR  --- 0 AODV 26 [13a 0 2 800] ------- [2:255 0:255 1 0] [0x12 0 [1333096014 1043704100] 0.000000] (HELLO)
r 0.044358829 _6_ RTR  --- 0 AODV 26 [13a 6 2 800] ------- [2:255 6:255 1 6] [0x12 0 [181341743 1043138155] 0.000000] (HELLO)
r 0.047371254 _6_ RTR  --- 0 AODV 26 [13a 6 3 800] ------- [3:255 6:255 1 6] [0x12 0 [646319781 1045326790] 0.000000] (HELLO)
r 0.049037709 _2_ RTR  --- 0 AODV 26 [13a 2 3 800] ------- [3:255 2:255 1 2] [0x12 0 [-51700466 1040727611] 0.000000] (HELLO)
r 0.050894538 _4_ RTR  --- 0 AODV 26 [13a 4 0 800] ------- [0:255 4:255 1 4] [0x12 0 [1915364511 1039791931] 0.000000] (HELLO)
r 0.052650677 _4_ RTR  --- 0 AODV 26 [13a 4 3 800] ------- [3:255 4:255 1 4] [0x12 0 [630590774 1041396844] 0.000000] (HELLO)
r 0.054416586 _3_ RTR  --- 0 AODV 26 [13a 3 4 800] ------- [4:255 3:255 1 3] [0x12 0 [630590774 1041396844] 0.000000] (HELLO)
r 0.056223561 _4_ RTR  --- 0 AODV 26 [13a 4 2 800] ------- [2:255 4:255 1 4] [0x12 0 [1455349293 1040354440] 0.000000] (HELLO)
s 0.750169789 _0_ RTR  --- 0 AODV 44 [0 0 0 0] ------- [0:255 -1:255 1 0] [0x1 1 [0 10] 4.000000] (HELLO)
r 0.751038163 _7_ RTR  --- 0 AODV 44 [0 ffffffff 0 800] ------- [0:255 -1:255 1 0] [0x1 1 [0 10] 4.000000] (HELLO)
s 0.751038163 _7_ RTR  --- 0 AODV 26 [0 0 0 0] ------- [7:255 0:255 1 0] [0x12 0 [-1661380636 1044588967] 0.000000] (HELLO)
r 0.751038221 _2_ RTR  --- 0 AODV 44 [0 ffffffff 0 800] ------- [0:255 -1:255 1 0] [0x1 1 [0 10] 4.000000] (HELLO)
s 0.751038221 _2_ RTR  --- 0 AODV 26 [0 0 0 0] ------- [2:255 0:255 1 0] [0x12 0 [1333096014 1043704100] 0.000000] (HELLO)
r 0.751038350 _1_ RTR  --- 0 AODV 44 [0 ffffffff 0 800] ------- [0:255 -1:255 1 0] [0x1 1 [0 10] 4.000000] (HELLO)
s 0.751038350 _1_ RTR  --- 0 AODV 26 [0 0 0 0] ------- [1:255 0:255 1 0] [0x12 0 [717681775 1042189813] 0.000000] (HELLO)
r 0.751038590 _5_ RTR  --- 0 AODV 44 [0 ffffffff 0 800] ------- [0:255 -1:255 1 0] [0x1 1 [0 10] 4.000000] (HELLO)
s 0.751038590 _5_ RTR  --- 0 AODV 26 [0 0 0 0] ------- [5:255 0:255 1 0] [0x12 0 [-1959408283 1040010313] 0.000000] (HELLO)
r 0.751038615 _4_ RTR  --- 0 AODV 44 [0 ffffffff 0 800] ------- [0:255 -1:255 1 0] [0x1 1 [0 10] 4.000000] (HELLO)
s 0.751038615 _4_ RTR  --- 0 AODV 26 [0 0 0 0] ------- [4:255 0:255 1 0] [0x12 0 [1915364511 1039791931] 0.000000] (HELLO)
r 0.752460033 _0_ RTR  --- 0 AODV 26 [13a 0 1 800] ------- [1:255 0:255 1 0] [0x12 0 [717681775 1042189813] 0.000000] (HELLO)
r 0.754397337 _0_ RTR  --- 0 AODV 26 [13a 0 4 800] ------- [4:255 0:255 1 0] [0x12 0 [1915364511 1039791931] 0.000000] (HELLO)
r 0.756103067 _0_ RTR  --- 0 AODV 26 [13a 0 2 800] ------- [2:255 0:255 1 0] [0x12 0 [1333096014 1043704100] 0.000000] (HELLO)
s 0.757102330 _2_ RTR  --- 0 AODV 44 [0 0 0 0] ------- [2:255 -1:255 1 0] [0x1 1 [2 12] 4.000000] (HELLO)
r 0.757788566 _0_ RTR  --- 0 AODV 26 [13a 0 7 800] ------- [7:255 0:255 1 0] [0x12 0 [-1661380636 1044588967] 0.000000] (HELLO)
r 0.758941431 _0_ RTR  --- 0 AODV 44 [0 ffffffff 2 800] ------- [2:255 -1:255 1 0] [0x1 1 [2 12] 4.000000] (HELLO)
s 0.758941431 _0_ RTR  --- 0 AODV 26 [0 0 0 0] ------- [0:255 2:255 1 2] [0x12 0 [1333096014 1043704100] 0.000000] (HELLO)
r 0.758941476 _6_ RTR  --- 0 AODV 44 [0 ffffffff 2 800] ------- [2:255 -1:255 1 0] [0x1 1 [2 12] 4.000000] (HELLO)
s 0.758941476 _6_ RTR  --- 0 AODV 26 [0 0 0 0] ------- [6:255 2:255 1 2] [0x12 0 [181341743 1043138155] 0.000000] (HELLO)
r 0.758941694 _7_ RTR  --- 0 AODV 44 [0 ffffffff 2 800] ------- [2:255 -1:255 1 0] [0x1 1 [2 12] 4.000000] (HELLO)
s 0.758941694 _7_ RTR  --- 0 AODV 26 [0 0 0 0] ------- [7:255 2:255 1 2] [0x12 0 [1267556591 1040827015] 0.000000] (HELLO)
r 0.758941705 _3_ RTR  --- 0 AODV 44 [0 ffffffff 2 800] ------- [2:255 -1:255 1 0] [0x1 1 [2 12] 4.000000] (HELLO)
s 0.758941705 _3_ RTR  --- 0 AODV 26 [0 0 0 0] ------- [3:255 2:255 1 2] [0x12 0 [-51700466 1040727611] 0.000000] (HELLO)
r 0.758941754 _4_ RTR  --- 0 AODV 44 [0 ffffffff 2 800] ------- [2:255 -1:255 1 0] [0x1 1 [2 12] 4.000000] (HELLO)
s 0.758941754 _4_ RTR  --- 0 AODV 26 [0 0 0 0] ------- [4:255 2:255 1 2] [0x12 0 [1455349293 1040354440] 0.000000] (HELLO)
r 0.760393783 _2_ RTR  --- 0 AODV 26 [13a 2 7 800] ------- [7:255 2:255 1 2] [0x12 0 [1267556591 1040827015] 0.000000] (HELLO)
r 0.762119512 _2_ RTR  --- 0 AODV 26 [13a 2 0 800] ------- [0:255 2:255 1 2] [0x12 0 [1333096014 1043704100] 0.000000] (HELLO)
r 0.763875408 _2_ RTR  --- 0 AODV 26 [13a 2 6 800] ------- [6:255 2:255 1 2] [0x12 0 [181341743 1043138155] 0.000000] (HELLO)
r 0.765602432 _2_ RTR  --- 0 AODV 26 [13a 2 4 800] ------- [4:255 2:255 1 2] [0x12 0 [1455349293 1040354440] 0.000000] (HELLO)
r 0.767389259 _2_ RTR  --- 0 AODV 26 [13a 2 3 800] ------- [3:255 2:255 1 2] [0x12 0 [-51700466 1040727611] 0.000000] (HELLO)
r 0.769620733 _0_ RTR  --- 0 AODV 26 [13a 0 5 800] ------- [5:255 0:255 1 0] [0x12 0 [-1959408283 1040010313] 0.000000] (HELLO)
s 0.794061336 _3_ RTR  --- 0 AODV 44 [0 0 0 0] ------- [3:255 -1:255 1 0] [0x1 1 [3 8] 4.000000] (HELLO)
r 0.795049670 _6_ RTR  --- 0 AODV 44 [0 ffffffff 3 800] ------- [3:255 -1:255 1 0] [0x1 1 [3 8] 4.000000] (HELLO)
s 0.795049670 _6_ RTR  --- 0 AODV 26 [0 0 0 0] ------- [6:255 3:255 1 3] [0x12 0 [646319781 1045326790] 0.000000] (HELLO)
r 0.795049972 _4_ RTR  --- 0 AODV 44 [0 ffffffff 3 800] ------- [3:255 -1:255 1 0] [0x1 1 [3 8] 4.000000] (HELLO)
s 0.795049972 _4_ RTR  --- 0 AODV 26 [0 0 0 0] ------- [4:255 3:255 1 3] [0x12 0 [630590774 1041396844] 0.000000] (HELLO)
r 0.795050043 _2_ RTR  --- 0 AODV 44 [0 ffffffff 3 800] ------- [3:255 -1:255 1 0] [0x1 1 [3 8] 4.000000] (HELLO)
s 0.795050043 _2_ RTR  --- 0 AODV 26 [0 0 0 0] ------- [2:255 3:255 1 3] [0x12 0 [-51700466 1040727611] 0.000000] (HELLO)
r 0.796752163 _3_ RTR  --- 0 AODV 26 [13a 3 2 800] ------- [2:255 3:255 1 3] [0x12 0 [-51700466 1040727611] 0.000000] (HELLO)
r 0.798557499 _3_ RTR  --- 0 AODV 26 [13a 3 6 800] ------- [6:255 3:255 1 3] [0x12 0 [646319781 1045326790] 0.000000] (HELLO)
r 0.800324044 _3_ RTR  --- 0 AODV 26 [13a 3 4 800] ------- [4:255 3:255 1 3] [0x12 0 [630590774 1041396844] 0.000000] (HELLO)
s 0.906480886 _6_ RTR  --- 0 AODV 44 [0 0 0 0] ------- [6:255 -1:255 1 0] [0x1 1 [6 8] 4.000000] (HELLO)
r 0.907929220 _3_ RTR  --- 0 AODV 44 [0 ffffffff 6 800] ------- [6:255 -1:255 1 0] [0x1 1 [6 8] 4.000000] (HELLO)
s 0.907929220 _3_ RTR  --- 0 AODV 26 [0 0 0 0] ------- [3:255 6:255 1 6] [0x12 0 [646319781 1045326790] 0.000000] (HELLO)
r 0.907929364 _2_ RTR  --- 0 AODV 44 [0 ffffffff 6 800] ------- [6:255 -1:255 1 0] [0x1 1 [6 8] 4.000000] (HELLO)
s 0.907929364 _2_ RTR  --- 0 AODV 26 [0 0 0 0] ------- [2:255 6:255 1 6] [0x12 0 [181341743 1043138155] 0.000000] (HELLO)
r 0.907929673 _4_ RTR  --- 0 AODV 44 [0 ffffffff 6 800] ------- [6:255 -1:255 1 0] [0x1 1 [6 8] 4.000000] (HELLO)
s 0.907929673 _4_ RTR  --- 0 AODV 26 [0 0 0 0] ------- [4:255 6:255 1 6] [0x12 0 [1614132897 1040155984] 0.000000] (HELLO)
r 0.909490797 _6_ RTR  --- 0 AODV 26 [13a 6 2 800] ------- [2:255 6:255 1 6] [0x12 0 [181341743 1043138155] 0.000000] (HELLO)
r 0.911176133 _6_ RTR  --- 0 AODV 26 [13a 6 3 800] ------- [3:255 6:255 1 6] [0x12 0 [646319781 1045326790] 0.000000] (HELLO)
r 0.913103282 _6_ RTR  --- 0 AODV 26 [13a 6 4 800] ------- [4:255 6:255 1 6] [0x12 0 [1614132897 1040155984] 0.000000] (HELLO)
s 0.970586691 _4_ RTR  --- 0 AODV 44 [0 0 0 0] ------- [4:255 -1:255 1 0] [0x1 1 [4 10] 4.000000] (HELLO)
r 0.971455327 _3_ RTR  --- 0 AODV 44 [0 ffffffff 4 800] ------- [4:255 -1:255 1 0] [0x1 1 [4 10] 4.000000] (HELLO)
s 0.971455327 _3_ RTR  --- 0 AODV 26 [0 0 0 0] ------- [3:255 4:255 1 4] [0x12 0 [630590774 1041396844] 0.000000] (HELLO)
r 0.971455399 _5_ RTR  --- 0 AODV 44 [0 ffffffff 4 800] ------- [4:255 -1:255 1 0] [0x1 1 [4 10] 4.000000] (HELLO)
s 0.971455399 _5_ RTR  --- 0 AODV 26 [0 0 0 0] ------- [5:255 4:255 1 4] [0x12 0 [1667599628 1040715597] 0.000000] (HELLO)
r 0.971455447 _2_ RTR  --- 0 AODV 44 [0 ffffffff 4 800] ------- [4:255 -1:255 1 0] [0x1 1 [4 10] 4.000000] (HELLO)
s 0.971455447 _2_ RTR  --- 0 AODV 26 [0 0 0 0] ------- [2:255 4:255 1 4] [0x12 0 [1455349293 1040354440] 0.000000] (HELLO)
r 0.971455478 _6_ RTR  --- 0 AODV 44 [0 ffffffff 4 800] ------- [4:255 -1:255 1 0] [0x1 1 [4 10] 4.000000] (HELLO)
s 0.971455478 _6_ RTR  --- 0 AODV 26 [0 0 0 0] ------- [6:255 4:255 1 4] [0x12 0 [1614132897 1040155984] 0.000000] (HELLO)
r 0.971455517 _0_ RTR  --- 0 AODV 44 [0 ffffffff 4 800] ------- [4:255 -1:255 1 0] [0x1 1 [4 10] 4.000000] (HELLO)
s 0.971455517 _0_ RTR  --- 0 AODV 26 [0 0 0 0] ------- [0:255 4:255 1 4] [0x12 0 [1915364511 1039791931] 0.000000] (HELLO)
r 0.973984619 _4_ RTR  --- 0 AODV 26 [13a 4 3 800] ------- [3:255 4:255 1 4] [0x12 0 [630590774 1041396844] 0.000000] (HELLO)
r 0.975751642 _4_ RTR  --- 0 AODV 26 [13a 4 2 800] ------- [2:255 4:255 1 4] [0x12 0 [1455349293 1040354440] 0.000000] (HELLO)
r 0.977458791 _4_ RTR  --- 0 AODV 26 [13a 4 6 800] ------- [6:255 4:255 1 4] [0x12 0 [1614132897 1040155984] 0.000000] (HELLO)
r 0.979255482 _4_ RTR  --- 0 AODV 26 [13a 4 5 800] ------- [5:255 4:255 1 4] [0x12 0 [1667599628 1040715597] 0.000000] (HELLO)
r 0.981322788 _4_ RTR  --- 0 AODV 26 [13a 4 0 800] ------- [0:255 4:255 1 4] [0x12 0 [1915364511 1039791931] 0.000000] (HELLO)
s 1.027940358 _1_ RTR  --- 0 AODV 44 [0 0 0 0] ------- [1:255 -1:255 1 0] [0x1 1 [1 6] 4.000000] (HELLO)
r 1.029228545 _7_ RTR  --- 0 AODV 44 [0 ffffffff 1 800] ------- [1:255 -1:255 1 0] [0x1 1 [1 6] 4.000000] (HELLO)
s 1.029228545 _7_ RTR  --- 0 AODV 26 [0 0 0 0] ------- [7:255 1:255 1 1] [0x12 0 [1693302638 1047558514] 0.000000] (HELLO)
r 1.029228919 _0_ RTR  --- 0 AODV 44 [0 ffffffff 1 800] ------- [1:255 -1:255 1 0] [0x1 1 [1 6] 4.000000] (HELLO)
s 1.029228919 _0_ RTR  --- 0 AODV 26 [0 0 0 0] ------- [0:255 1:255 1 1] [0x12 0 [717681775 1042189813] 0.000000] (HELLO)
r 1.030649104 _1_ RTR  --- 0 AODV 26 [13a 1 7 800] ------- [7:255 1:255 1 1] [0x12 0 [1693302638 1047558514] 0.000000] (HELLO)
r 1.032355348 _1_ RTR  --- 0 AODV 26 [13a 1 0 800] ------- [0:255 1:255 1 1] [0x12 0 [717681775 1042189813] 0.000000] (HELLO)
s 1.149577727 _5_ RTR  --- 0 AODV 44 [0 0 0 0] ------- [5:255 -1:255 1 0] [0x1 1 [5 6] 4.000000] (HELLO)
r 1.150826435 _4_ RTR  --- 0 AODV 44 [0 ffffffff 5 800] ------- [5:255 -1:255 1 0] [0x1 1 [5 6] 4.000000] (HELLO)
s 1.150826435 _4_ RTR  --- 0 AODV 26 [0 0 0 0] ------- [4:255 5:255 1 5] [0x12 0 [1667599628 1040715597] 0.000000] (HELLO)
r 1.150826528 _0_ RTR  --- 0 AODV 44 [0 ffffffff 5 800] ------- [5:255 -1:255 1 0] [0x1 1 [5 6] 4.000000] (HELLO)
s 1.150826528 _0_ RTR  --- 0 AODV 26 [0 0 0 0] ------- [0:255 5:255 1 5] [0x12 0 [-1959408283 1040010313] 0.000000] (HELLO)
r 1.152608560 _5_ RTR  --- 0 AODV 26 [13a 5 4 800] ------- [4:255 5:255 1 5] [0x12 0 [1667599628 1040715597] 0.000000] (HELLO)
r 1.154375767 _5_ RTR  --- 0 AODV 26 [13a 5 0 800] ------- [0:255 5:255 1 5] [0x12 0 [-1959408283 1040010313] 0.000000] (HELLO)
s 1.158238026 _7_ RTR  --- 0 AODV 44 [0 0 0 0] ------- [7:255 -1:255 1 0] [0x1 1 [7 8] 4.000000] (HELLO)
r 1.159286212 _1_ RTR  --- 0 AODV 44 [0 ffffffff 7 800] ------- [7:255 -1:255 1 0] [0x1 1 [7 8] 4.000000] (HELLO)
s 1.159286212 _1_ RTR  --- 0 AODV 26 [0 0 0 0] ------- [1:255 7:255 1 7] [0x12 0 [1693302638 1047558514] 0.000000] (HELLO)
r 1.159286401 _0_ RTR  --- 0 AODV 44 [0 ffffffff 7 800] ------- [7:255 -1:255 1 0] [0x1 1 [7 8] 4.000000] (HELLO)
s 1.159286401 _0_ RTR  --- 0 AODV 26 [0 0 0 0] ------- [0:255 7:255 1 7] [0x12 0 [-1661380636 1044588967] 0.000000] (HELLO)
r 1.159286722 _2_ RTR  --- 0 AODV 44 [0 ffffffff 7 800] ------- [7:255 -1:255 1 0] [0x1 1 [7 8] 4.000000] (HELLO)
s 1.159286722 _2_ RTR  --- 0 AODV 26 [0 0 0 0] ------- [2:255 7:255 1 7] [0x12 0 [1267556591 1040827015] 0.000000] (HELLO)
r 1.160687525 _7_ RTR  --- 0 AODV 26 [13a 7 0 800] ------- [0:255 7:255 1 7] [0x12 0 [-1661380636 1044588967] 0.000000] (HELLO)
r 1.162454310 _7_ RTR  --- 0 AODV 26 [13a 7 2 800] ------- [2:255 7:255 1 7] [0x12 0 [1267556591 1040827015] 0.000000] (HELLO)
r 1.164309025 _7_ RTR  --- 0 AODV 26 [13a 7 1 800] ------- [1:255 7:255 1 7] [0x12 0 [1693302638 1047558514] 0.000000] (HELLO)
s 1.532169033 _2_ RTR  --- 0 AODV 44 [0 0 0 0] ------- [2:255 -1:255 1 0] [0x1 1 [2 12] 4.000000] (HELLO)
r 1.533617465 _0_ RTR  --- 0 AODV 44 [0 ffffffff 2 800] ------- [2:255 -1:255 1 0] [0x1 1 [2 12] 4.000000] (HELLO)
s 1.533617465 _0_ RTR  --- 0 AODV 26 [0 0 0 0] ------- [0:255 2:255 1 2] [0x12 0 [1333096014 1043704100] 0.000000] (HELLO)
r 1.533617511 _6_ RTR  --- 0 AODV 44 [0 ffffffff 2 800] ------- [2:255 -1:255 1 0] [0x1 1 [2 12] 4.000000] (HELLO)
s 1.533617511 _6_ RTR  --- 0 AODV 26 [0 0 0 0] ------- [6:255 2:255 1 2] [0x12 0 [181341743 1043138155] 0.000000] (HELLO)
r 1.533617729 _7_ RTR  --- 0 AODV 44 [0 ffffffff 2 800] ------- [2:255 -1:255 1 0] [0x1 1 [2 12] 4.000000] (HELLO)
s 1.533617729 _7_ RTR  --- 0 AODV 26 [0 0 0 0] ------- [7:255 2:255 1 2] [0x12 0 [1267556591 1040827015] 0.000000] (HELLO)
r 1.533617740 _3_ RTR  --- 0 AODV 44 [0 ffffffff 2 800] ------- [2:255 -1:255 1 0] [0x1 1 [2 12] 4.000000] (HELLO)
s 1.533617740 _3_ RTR  --- 0 AODV 26 [0 0 0 0] ------- [3:255 2:255 1 2] [0x12 0 [-51700466 1040727611] 0.000000] (HELLO)
r 1.533617789 _4_ RTR  --- 0 AODV 44 [0 ffffffff 2 800] ------- [2:255 -1:255 1 0] [0x1 1 [2 12] 4.000000] (HELLO)
s 1.533617789 _4_ RTR  --- 0 AODV 26 [0 0 0 0] ------- [4:255 2:255 1 2] [0x12 0 [1455349293 1040354440] 0.000000] (HELLO)
r 1.535120056 _2_ RTR  --- 0 AODV 26 [13a 2 4 800] ------- [4:255 2:255 1 2] [0x12 0 [1455349293 1040354440] 0.000000] (HELLO)
r 1.536825967 _2_ RTR  --- 0 AODV 26 [13a 2 6 800] ------- [6:255 2:255 1 2] [0x12 0 [181341743 1043138155] 0.000000] (HELLO)
r 1.538682750 _2_ RTR  --- 0 AODV 26 [13a 2 7 800] ------- [7:255 2:255 1 2] [0x12 0 [1267556591 1040827015] 0.000000] (HELLO)
r 1.540588479 _2_ RTR  --- 0 AODV 26 [13a 2 0 800] ------- [0:255 2:255 1 2] [0x12 0 [1333096014 1043704100] 0.000000] (HELLO)
r 1.542325225 _2_ RTR  --- 0 AODV 26 [13a 2 3 800] ------- [3:255 2:255 1 2] [0x12 0 [-51700466 1040727611] 0.000000] (HELLO)
s 1.663828288 _0_ RTR  --- 0 AODV 44 [0 0 0 0] ------- [0:255 -1:255 1 0] [0x1 1 [0 12] 4.000000] (HELLO)
r 1.664816663 _7_ RTR  --- 0 AODV 44 [0 ffffffff 0 800] ------- [0:255 -1:255 1 0] [0x1 1 [0 12] 4.000000] (HELLO)
s 1.664816663 _7_ RTR  --- 0 AODV 26 [0 0 0 0] ------- [7:255 0:255 1 0] [0x12 0 [-1661380636 1044588967] 0.000000] (HELLO)
r 1.664816721 _2_ RTR  --- 0 AODV 44 [0 ffffffff 0 800] ------- [0:255 -1:255 1 0] [0x1 1 [0 12] 4.000000] (HELLO)
s 1.664816721 _2_ RTR  --- 0 AODV 26 [0 0 0 0] ------- [2:255 0:255 1 0] [0x12 0 [1333096014 1043704100] 0.000000] (HELLO)
r 1.664816849 _1_ RTR  --- 0 AODV 44 [0 ffffffff 0 800] ------- [0:255 -1:255 1 0] [0x1 1 [0 12] 4.000000] (HELLO)
s 1.664816849 _1_ RTR  --- 0 AODV 26 [0 0 0 0] ------- [1:255 0:255 1 0] [0x12 0 [717681775 1042189813] 0.000000] (HELLO)
r 1.664817090 _5_ RTR  --- 0 AODV 44 [0 ffffffff 0 800] ------- [0:255 -1:255 1 0] [0x1 1 [0 12] 4.000000] (HELLO)
s 1.664817090 _5_ RTR  --- 0 AODV 26 [0 0 0 0] ------- [5:255 0:255 1 0] [0x12 0 [-1959408283 1040010313] 0.000000] (HELLO)
r 1.664817115 _4_ RTR  --- 0 AODV 44 [0 ffffffff 0 800] ------- [0:255 -1:255 1 0] [0x1 1 [0 12] 4.000000] (HELLO)
s 1.664817115 _4_ RTR  --- 0 AODV 26 [0 0 0 0] ------- [4:255 0:255 1 0] [0x12 0 [1915364511 1039791931] 0.000000] (HELLO)
r 1.666359495 _0_ RTR  --- 0 AODV 26 [13a 0 5 800] ------- [5:255 0:255 1 0] [0x12 0 [-1959408283 1040010313] 0.000000] (HELLO)
r 1.668094876 _0_ RTR  --- 0 AODV 26 [13a 0 7 800] ------- [7:255 0:255 1 0] [0x12 0 [-1661380636 1044588967] 0.000000] (HELLO)
r 1.670100606 _0_ RTR  --- 0 AODV 26 [13a 0 2 800] ------- [2:255 0:255 1 0] [0x12 0 [1333096014 1043704100] 0.000000] (HELLO)
r 1.671827911 _0_ RTR  --- 0 AODV 26 [13a 0 4 800] ------- [4:255 0:255 1 0] [0x12 0 [1915364511 1039791931] 0.000000] (HELLO)
r 1.673644154 _0_ RTR  --- 0 AODV 26 [13a 0 1 800] ------- [1:255 0:255 1 0] [0x12 0 [717681775 1042189813] 0.000000] (HELLO)
s 1.722261825 _4_ RTR  --- 0 AODV 44 [0 0 0 0] ------- [4:255 -1:255 1 0] [0x1 1 [4 12] 4.000000] (HELLO)
r 1.723690462 _3_ RTR  --- 0 AODV 44 [0 ffffffff 4 800] ------- [4:255 -1:255 1 0] [0x1 1 [4 12] 4.000000] (HELLO)
s 1.723690462 _3_ RTR  --- 0 AODV 26 [0 0 0 0] ------- [3:255 4:255 1 4] [0x12 0 [630590774 1041396844] 0.000000] (HELLO)
r 1.723690533 _5_ RTR  --- 0 AODV 44 [0 ffffffff 4 800] ------- [4:255 -1:255 1 0] [0x1 1 [4 12] 4.000000] (HELLO)
s 1.723690533 _5_ RTR  --- 0 AODV 26 [0 0 0 0] ------- [5:255 4:255 1 4] [0x12 0 [1667599628 1040715597] 0.000000] (HELLO)
r 1.723690581 _2_ RTR  --- 0 AODV 44 [0 ffffffff 4 800] ------- [4:255 -1:255 1 0] [0x1 1 [4 12] 4.000000] (HELLO)
s 1.723690581 _2_ RTR  --- 0 AODV 26 [0 0 0 0] ------- [2:255 4:255 1 4] [0x12 0 [1455349293 1040354440] 0.000000] (HELLO)
r 1.723690612 _6_ RTR  --- 0 AODV 44 [0 ffffffff 4 800] ------- [4:255 -1:255 1 0] [0x1 1 [4 12] 4.000000] (HELLO)
s 1.723690612 _6_ RTR  --- 0 AODV 26 [0 0 0 0] ------- [6:255 4:255 1 4] [0x12 0 [1614132897 1040155984] 0.000000] (HELLO)
r 1.723690652 _0_ RTR  --- 0 AODV 44 [0 ffffffff 4 800] ------- [4:255 -1:255 1 0] [0x1 1 [4 12] 4.000000] (HELLO)
s 1.723690652 _0_ RTR  --- 0 AODV 26 [0 0 0 0] ------- [0:255 4:255 1 4] [0x12 0 [1915364511 1039791931] 0.000000] (HELLO)
r 1.725132974 _4_ RTR  --- 0 AODV 26 [13a 4 6 800] ------- [6:255 4:255 1 4] [0x12 0 [1614132897 1040155984] 0.000000] (HELLO)
r 1.727099520 _4_ RTR  --- 0 AODV 26 [13a 4 3 800] ------- [3:255 4:255 1 4] [0x12 0 [630590774 1041396844] 0.000000] (HELLO)
r 1.728856318 _4_ RTR  --- 0 AODV 26 [13a 4 5 800] ------- [5:255 4:255 1 4] [0x12 0 [1667599628 1040715597] 0.000000] (HELLO)
r 1.730632946 _4_ RTR  --- 0 AODV 26 [13a 4 2 800] ------- [2:255 4:255 1 4] [0x12 0 [1455349293 1040354440] 0.000000] (HELLO)
r 1.732400252 _4_ RTR  --- 0 AODV 26 [13a 4 0 800] ------- [0:255 4:255 1 4] [0x12 0 [1915364511 1039791931] 0.000000] (HELLO)
s 1.843282809 _6_ RTR  --- 0 AODV 44 [0 0 0 0] ------- [6:255 -1:255 1 0] [0x1 1 [6 8] 4.000000] (HELLO)
r 1.844531143 _3_ RTR  --- 0 AODV 44 [0 ffffffff 6 800] ------- [6:255 -1:255 1 0] [0x1 1 [6 8] 4.000000] (HELLO)
s 1.844531143 _3_ RTR  --- 0 AODV 26 [0 0 0 0] ------- [3:255 6:255 1 6] [0x12 0 [646319781 1045326790] 0.000000] (HELLO)
r 1.844531287 _2_ RTR  --- 0 AODV 44 [0 ffffffff 6 800] ------- [6:255 -1:255 1 0] [0x1 1 [6 8] 4.000000] (HELLO)
s 1.844531287 _2_ RTR  --- 0 AODV 26 [0 0 0 0] ------- [2:255 6:255 1 6] [0x12 0 [181341743 1043138155] 0.000000] (HELLO)
r 1.844531596 _4_ RTR  --- 0 AODV 44 [0 ffffffff 6 800] ------- [6:255 -1:255 1 0] [0x1 1 [6 8] 4.000000] (HELLO)
s 1.844531596 _4_ RTR  --- 0 AODV 26 [0 0 0 0] ------- [4:255 6:255 1 6] [0x12 0 [1614132897 1040155984] 0.000000] (HELLO)
r 1.846053958 _6_ RTR  --- 0 AODV 26 [13a 6 4 800] ------- [4:255 6:255 1 6] [0x12 0 [1614132897 1040155984] 0.000000] (HELLO)
r 1.847899294 _6_ RTR  --- 0 AODV 26 [13a 6 3 800] ------- [3:255 6:255 1 6] [0x12 0 [646319781 1045326790] 0.000000] (HELLO)
r 1.849665205 _6_ RTR  --- 0 AODV 26 [13a 6 2 800] ------- [2:255 6:255 1 6] [0x12 0 [181341743 1043138155] 0.000000] (HELLO)
s 1.945067267 _3_ RTR  --- 0 AODV 44 [0 0 0 0] ------- [3:255 -1:255 1 0] [0x1 1 [3 8] 4.000000] (HELLO)
r 1.946495601 _6_ RTR  --- 0 AODV 44 [0 ffffffff 3 800] ------- [3:255 -1:255 1 0] [0x1 1 [3 8] 4.000000] (HELLO)
s 1.946495601 _6_ RTR  --- 0 AODV 26 [0 0 0 0] ------- [6:255 3:255 1 3] [0x12 0 [646319781 1045326790] 0.000000] (HELLO)
r 1.946495903 _4_ RTR  --- 0 AODV 44 [0 ffffffff 3 800] ------- [3:255 -1:255 1 0] [0x1 1 [3 8] 4.000000] (HELLO)
s 1.946495903 _4_ RTR  --- 0 AODV 26 [0 0 0 0] ------- [4:255 3:255 1 3] [0x12 0 [630590774 1041396844] 0.000000] (HELLO)
r 1.946495974 _2_ RTR  --- 0 AODV 44 [0 ffffffff 3 800] ------- [3:255 -1:255 1 0] [0x1 1 [3 8] 4.000000] (HELLO)
s 1.946495974 _2_ RTR  --- 0 AODV 26 [0 0 0 0] ------- [2:255 3:255 1 3] [0x12 0 [-51700466 1040727611] 0.000000] (HELLO)
r 1.948057812 _3_ RTR  --- 0 AODV 26 [13a 3 4 800] ------- [4:255 3:255 1 3] [0x12 0 [630590774 1041396844] 0.000000] (HELLO)
r 1.949903148 _3_ RTR  --- 0 AODV 26 [13a 3 6 800] ------- [6:255 3:255 1 3] [0x12 0 [646319781 1045326790] 0.000000] (HELLO)
r 1.951589976 _3_ RTR  --- 0 AODV 26 [13a 3 2 800] ------- [2:255 3:255 1 3] [0x12 0 [-51700466 1040727611] 0.000000] (HELLO)
s 1.996551446 _1_ RTR  --- 0 AODV 44 [0 0 0 0] ------- [1:255 -1:255 1 0] [0x1 1 [1 6] 4.000000] (HELLO)
r 1.997519632 _7_ RTR  --- 0 AODV 44 [0 ffffffff 1 800] ------- [1:255 -1:255 1 0] [0x1 1 [1 6] 4.000000] (HELLO)
s 1.997519632 _7_ RTR  --- 0 AODV 26 [0 0 0 0] ------- [7:255 1:255 1 1] [0x12 0 [1693302638 1047558514] 0.000000] (HELLO)
r 1.997520007 _0_ RTR  --- 0 AODV 44 [0 ffffffff 1 800] ------- [1:255 -1:255 1 0] [0x1 1 [1 6] 4.000000] (HELLO)