Sconfig 0.00000 tap: on snoop: rts? on errs? on
Sconfig 0.00000 salvage: on !bd replies? on
Sconfig 0.00000 grat error: on grat reply: on
Sconfig 0.00000 $reply for props: on ring 0 search: on
Sconfig 0.00000 using MOBICACHE
s 15.000000000 _0_ AGT  --- 0 cbr 512 [0 0 0 0] ------- [0:0 16:0 32 0] [0] 0 0
r 15.000000000 _0_ RTR  --- 0 cbr 512 [0 0 0 0] ------- [0:0 16:0 32 0] [0] 0 0
s 15.007467171 _0_ RTR  --- 1 DSR 32 [0 0 0 0] ------- [0:255 16:255 32 0] 1 [1 1] [0 1 0 0->0] [0 0 0 0->0]
r 15.008319504 _3_ RTR  --- 1 DSR 32 [0 ffffffff 0 800] ------- [0:255 16:255 32 0] 1 [1 1] [0 1 0 0->0] [0 0 0 0->0]
r 15.008319837 _6_ RTR  --- 1 DSR 32 [0 ffffffff 0 800] ------- [0:255 16:255 32 0] 1 [1 1] [0 1 0 0->0] [0 0 0 0->0]
r 15.008319837 _1_ RTR  --- 1 DSR 32 [0 ffffffff 0 800] ------- [0:255 16:255 32 0] 1 [1 1] [0 1 0 0->0] [0 0 0 0->0]
r 15.008319916 _4_ RTR  --- 1 DSR 32 [0 ffffffff 0 800] ------- [0:255 16:255 32 0] 1 [1 1] [0 1 0 0->0] [0 0 0 0->0]
s 15.045580858 _0_ RTR  --- 2 DSR 32 [0 0 0 0] ------- [0:255 16:255 32 0] 1 [1 2] [0 2 0 0->16] [0 0 0 0->0]
r 15.046833192 _3_ RTR  --- 2 DSR 32 [0 ffffffff 0 800] ------- [0:255 16:255 32 0] 1 [1 2] [0 2 0 0->16] [0 0 0 0->0]
r 15.046833525 _6_ RTR  --- 2 DSR 32 [0 ffffffff 0 800] ------- [0:255 16:255 32 0] 1 [1 2] [0 2 0 0->16] [0 0 0 0->0]
r 15.046833525 _1_ RTR  --- 2 DSR 32 [0 ffffffff 0 800] ------- [0:255 16:255 32 0] 1 [1 2] [0 2 0 0->16] [0 0 0 0->0]
r 15.046833604 _4_ RTR  --- 2 DSR 32 [0 ffffffff 0 800] ------- [0:255 16:255 32 0] 1 [1 2] [0 2 0 0->16] [0 0 0 0->0]
f 15.047819084 _3_ RTR  --- 2 DSR 48 [0 ffffffff 0 800] ------- [0:255 16:255 32 0] 2 [1 2] [0 2 0 0->16] [0 0 0 0->0]
r 15.049199417 _0_ RTR  --- 2 DSR 48 [0 ffffffff 3 800] ------- [0:255 16:255 32 0] 2 [1 2] [0 2 0 0->16] [0 0 0 0->0]
r 15.049199417 _6_ RTR  --- 2 DSR 48 [0 ffffffff 3 800] ------- [0:255 16:255 32 0] 2 [1 2] [0 2 0 0->16] [0 0 0 0->0]
r 15.049199751 _9_ RTR  --- 2 DSR 48 [0 ffffffff 3 800] ------- [0:255 16:255 32 0] 2 [1 2] [0 2 0 0->16] [0 0 0 0->0]
r 15.049199751 _4_ RTR  --- 2 DSR 48 [0 ffffffff 3 800] ------- [0:255 16:255 32 0] 2 [1 2] [0 2 0 0->16] [0 0 0 0->0]
r 15.049199829 _1_ RTR  --- 2 DSR 48 [0 ffffffff 3 800] ------- [0:255 16:255 32 0] 2 [1 2] [0 2 0 0->16] [0 0 0 0->0]
r 15.049199829 _7_ RTR  --- 2 DSR 48 [0 ffffffff 3 800] ------- [0:255 16:255 32 0] 2 [1 2] [0 2 0 0->16] [0 0 0 0->0]
f 15.050805009 _6_ RTR  --- 2 DSR 48 [0 ffffffff 0 800] ------- [0:255 16:255 32 0] 2 [1 2] [0 2 0 0->16] [0 0 0 0->0]
f 15.051659392 _4_ RTR  --- 2 DSR 48 [0 ffffffff 0 800] ------- [0:255 16:255 32 0] 2 [1 2] [0 2 0 0->16] [0 0 0 0->0]
f 15.051887828 _9_ RTR  --- 2 DSR 68 [0 ffffffff 3 800] ------- [0:255 16:255 32 0] 3 [1 2] [0 2 0 0->16] [0 0 0 0->0]
r 15.052265342 _3_ RTR  --- 2 DSR 48 [0 ffffffff 6 800] ------- [0:255 16:255 32 0] 2 [1 2] [0 2 0 0->16] [0 0 0 0->0]
r 15.052265342 _9_ RTR  --- 2 DSR 48 [0 ffffffff 6 800] ------- [0:255 16:255 32 0] 2 [1 2] [0 2 0 0->16] [0 0 0 0->0]
r 15.052265676 _0_ RTR  --- 2 DSR 48 [0 ffffffff 6 800] ------- [0:255 16:255 32 0] 2 [1 2] [0 2 0 0->16] [0 0 0 0->0]
r 15.052265676 _12_ RTR  --- 2 DSR 48 [0 ffffffff 6 800] ------- [0:255 16:255 32 0] 2 [1 2] [0 2 0 0->16] [0 0 0 0->0]
r 15.052265676 _7_ RTR  --- 2 DSR 48 [0 ffffffff 6 800] ------- [0:255 16:255 32 0] 2 [1 2] [0 2 0 0->16] [0 0 0 0->0]
r 15.052265754 _21_ RTR  --- 2 DSR 48 [0 ffffffff 6 800] ------- [0:255 16:255 32 0] 2 [1 2] [0 2 0 0->16] [0 0 0 0->0]
r 15.052265754 _4_ RTR  --- 2 DSR 48 [0 ffffffff 6 800] ------- [0:255 16:255 32 0] 2 [1 2] [0 2 0 0->16] [0 0 0 0->0]
r 15.052265754 _10_ RTR  --- 2 DSR 48 [0 ffffffff 6 800] ------- [0:255 16:255 32 0] 2 [1 2] [0 2 0 0->16] [0 0 0 0->0]
f 15.052282900 _12_ RTR  --- 2 DSR 68 [0 ffffffff 6 800] ------- [0:255 16:255 32 0] 3 [1 2] [0 2 0 0->16] [0 0 0 0->0]
s 15.052949437 _0_ AGT  --- 3 cbr 512 [0 0 0 0] ------- [0:0 16:0 32 0] [1] 0 0
r 15.052949437 _0_ RTR  --- 3 cbr 512 [0 0 0 0] ------- [0:0 16:0 32 0] [1] 0 0
r 15.053435676 _6_ RTR  --- 2 DSR 68 [0 ffffffff 9 800] ------- [0:255 16:255 32 0] 3 [1 2] [0 2 0 0->16] [0 0 0 0->0]
r 15.053435676 _12_ RTR  --- 2 DSR 68 [0 ffffffff 9 800] ------- [0:255 16:255 32 0] 3 [1 2] [0 2 0 0->16] [0 0 0 0->0]
r 15.053435814 _21_ RTR  --- 2 DSR 68 [0 ffffffff 9 800] ------- [0:255 16:255 32 0] 3 [1 2] [0 2 0 0->16] [0 0 0 0->0]
r 15.053436009 _3_ RTR  --- 2 DSR 68 [0 ffffffff 9 800] ------- [0:255 16:255 32 0] 3 [1 2] [0 2 0 0->16] [0 0 0 0->0]
r 15.053436009 _15_ RTR  --- 2 DSR 68 [0 ffffffff 9 800] ------- [0:255 16:255 32 0] 3 [1 2] [0 2 0 0->16] [0 0 0 0->0]
r 15.053436009 _10_ RTR  --- 2 DSR 68 [0 ffffffff 9 800] ------- [0:255 16:255 32 0] 3 [1 2] [0 2 0 0->16] [0 0 0 0->0]
r 15.053436088 _19_ RTR  --- 2 DSR 68 [0 ffffffff 9 800] ------- [0:255 16:255 32 0] 3 [1 2] [0 2 0 0->16] [0 0 0 0->0]
r 15.053436088 _7_ RTR  --- 2 DSR 68 [0 ffffffff 9 800] ------- [0:255 16:255 32 0] 3 [1 2] [0 2 0 0->16] [0 0 0 0->0]
r 15.053436088 _13_ RTR  --- 2 DSR 68 [0 ffffffff 9 800] ------- [0:255 16:255 32 0] 3 [1 2] [0 2 0 0->16] [0 0 0 0->0]
f 15.053837173 _1_ RTR  --- 2 DSR 48 [0 ffffffff 0 800] ------- [0:255 16:255 32 0] 2 [1 2] [0 2 0 0->16] [0 0 0 0->0]
f 15.054344692 _21_ RTR  --- 2 DSR 68 [0 ffffffff 6 800] ------- [0:255 16:255 32 0] 3 [1 2] [0 2 0 0->16] [0 0 0 0->0]
r 15.054566009 _9_ RTR  --- 2 DSR 68 [0 ffffffff c 800] ------- [0:255 16:255 32 0] 3 [1 2] [0 2 0 0->16] [0 0 0 0->0]
r 15.054566009 _15_ RTR  --- 2 DSR 68 [0 ffffffff c 800] ------- [0:255 16:255 32 0] 3 [1 2] [0 2 0 0->16] [0 0 0 0->0]
r 15.054566009 _21_ RTR  --- 2 DSR 68 [0 ffffffff c 800] ------- [0:255 16:255 32 0] 3 [1 2] [0 2 0 0->16] [0 0 0 0->0]
r 15.054566147 _19_ RTR  --- 2 DSR 68 [0 ffffffff c 800] ------- [0:255 16:255 32 0] 3 [1 2] [0 2 0 0->16] [0 0 0 0->0]
r 15.054566342 _6_ RTR  --- 2 DSR 68 [0 ffffffff c 800] ------- [0:255 16:255 32 0] 3 [1 2] [0 2 0 0->16] [0 0 0 0->0]
r 15.054566342 _13_ RTR  --- 2 DSR 68 [0 ffffffff c 800] ------- [0:255 16:255 32 0] 3 [1 2] [0 2 0 0->16] [0 0 0 0->0]
r 15.054566421 _10_ RTR  --- 2 DSR 68 [0 ffffffff c 800] ------- [0:255 16:255 32 0] 3 [1 2] [0 2 0 0->16] [0 0 0 0->0]
r 15.054566421 _16_ RTR  --- 2 DSR 68 [0 ffffffff c 800] ------- [0:255 16:255 32 0] 3 [1 2] [0 2 0 0->16] [0 0 0 0->0]
f 15.055003657 _19_ RTR  --- 2 DSR 92 [0 ffffffff 9 800] ------- [0:255 16:255 32 0] 4 [1 2] [0 2 0 0->16] [0 0 0 0->0]
s 15.055095722 _16_ RTR  --- 5 DSR 60 [0 0 0 0] ------- [16:255 0:255 254 12] 4 [0 2] [1 2 4 0->16] [0 0 0 0->0]
f 15.055501086 _15_ RTR  --- 2 DSR 92 [0 ffffffff 9 800] ------- [0:255 16:255 32 0] 4 [1 2] [0 2 0 0->16] [0 0 0 0->0]
r 15.055776342 _19_ RTR  --- 2 DSR 68 [0 ffffffff 15 800] ------- [0:255 16:255 32 0] 3 [1 2] [0 2 0 0->16] [0 0 0 0->0]
r 15.055776342 _12_ RTR  --- 2 DSR 68 [0 ffffffff 15 800] ------- [0:255 16:255 32 0] 3 [1 2] [0 2 0 0->16] [0 0 0 0->0]
r 15.055776342 _13_ RTR  --- 2 DSR 68 [0 ffffffff 15 800] ------- [0:255 16:255 32 0] 3 [1 2] [0 2 0 0->16] [0 0 0 0->0]
r 15.055776481 _15_ RTR  --- 2 DSR 68 [0 ffffffff 15 800] ------- [0:255 16:255 32 0] 3 [1 2] [0 2 0 0->16] [0 0 0 0->0]
r 15.055776481 _9_ RTR  --- 2 DSR 68 [0 ffffffff 15 800] ------- [0:255 16:255 32 0] 3 [1 2] [0 2 0 0->16] [0 0 0 0->0]
r 15.055776481 _10_ RTR  --- 2 DSR 68 [0 ffffffff 15 800] ------- [0:255 16:255 32 0] 3 [1 2] [0 2 0 0->16] [0 0 0 0->0]
r 15.055776481 _16_ RTR  --- 2 DSR 68 [0 ffffffff 15 800] ------- [0:255 16:255 32 0] 3 [1 2] [0 2 0 0->16] [0 0 0 0->0]
r 15.055776676 _20_ RTR  --- 2 DSR 68 [0 ffffffff 15 800] ------- [0:255 16:255 32 0] 3 [1 2] [0 2 0 0->16] [0 0 0 0->0]
r 15.055776754 _6_ RTR  --- 2 DSR 68 [0 ffffffff 15 800] ------- [0:255 16:255 32 0] 3 [1 2] [0 2 0 0->16] [0 0 0 0->0]
r 15.055776754 _7_ RTR  --- 2 DSR 68 [0 ffffffff 15 800] ------- [0:255 16:255 32 0] 3 [1 2] [0 2 0 0->16] [0 0 0 0->0]
r 15.055776754 _18_ RTR  --- 2 DSR 68 [0 ffffffff 15 800] ------- [0:255 16:255 32 0] 3 [1 2] [0 2 0 0->16] [0 0 0 0->0]
r 15.057278676 _15_ RTR  --- 2 DSR 92 [0 ffffffff 13 800] ------- [0:255 16:255 32 0] 4 [1 2] [0 2 0 0->16] [0 0 0 0->0]
r 15.057278676 _21_ RTR  --- 2 DSR 92 [0 ffffffff 13 800] ------- [0:255 16:255 32 0] 4 [1 2] [0 2 0 0->16] [0 0 0 0->0]
r 15.057278676 _16_ RTR  --- 2 DSR 92 [0 ffffffff 13 800] ------- [0:255 16:255 32 0] 4 [1 2] [0 2 0 0->16] [0 0 0 0->0]
r 15.057278814 _12_ RTR  --- 2 DSR 92 [0 ffffffff 13 800] ------- [0:255 16:255 32 0] 4 [1 2] [0 2 0 0->16] [0 0 0 0->0]
r 15.057278814 _13_ RTR  --- 2 DSR 92 [0 ffffffff 13 800] ------- [0:255 16:255 32 0] 4 [1 2] [0 2 0 0->16] [0 0 0 0->0]
r 15.057279009 _18_ RTR  --- 2 DSR 92 [0 ffffffff 13 800] ------- [0:255 16:255 32 0] 4 [1 2] [0 2 0 0->16] [0 0 0 0->0]
r 15.057279088 _9_ RTR  --- 2 DSR 92 [0 ffffffff 13 800] ------- [0:255 16:255 32 0] 4 [1 2] [0 2 0 0->16] [0 0 0 0->0]
r 15.057279088 _10_ RTR  --- 2 DSR 92 [0 ffffffff 13 800] ------- [0:255 16:255 32 0] 4 [1 2] [0 2 0 0->16] [0 0 0 0->0]
r 15.057279088 _20_ RTR  --- 2 DSR 92 [0 ffffffff 13 800] ------- [0:255 16:255 32 0] 4 [1 2] [0 2 0 0->16] [0 0 0 0->0]
f 15.057849864 _7_ RTR  --- 2 DSR 68 [0 ffffffff 3 800] ------- [0:255 16:255 32 0] 3 [1 2] [0 2 0 0->16] [0 0 0 0->0]
r 15.058521009 _12_ RTR  --- 2 DSR 92 [0 ffffffff f 800] ------- [0:255 16:255 32 0] 4 [1 2] [0 2 0 0->16] [0 0 0 0->0]
r 15.058521009 _19_ RTR  --- 2 DSR 92 [0 ffffffff f 800] ------- [0:255 16:255 32 0] 4 [1 2] [0 2 0 0->16] [0 0 0 0->0]
r 15.058521147 _21_ RTR  --- 2 DSR 92 [0 ffffffff f 800] ------- [0:255 16:255 32 0] 4 [1 2] [0 2 0 0->16] [0 0 0 0->0]
r 15.058521342 _9_ RTR  --- 2 DSR 92 [0 ffffffff f 800] ------- [0:255 16:255 32 0] 4 [1 2] [0 2 0 0->16] [0 0 0 0->0]
r 15.058521342 _16_ RTR  --- 2 DSR 92 [0 ffffffff f 800] ------- [0:255 16:255 32 0] 4 [1 2] [0 2 0 0->16] [0 0 0 0->0]
r 15.058521421 _13_ RTR  --- 2 DSR 92 [0 ffffffff f 800] ------- [0:255 16:255 32 0] 4 [1 2] [0 2 0 0->16] [0 0 0 0->0]
f 15.058653861 _13_ RTR  --- 2 DSR 92 [0 ffffffff 9 800] ------- [0:255 16:255 32 0] 4 [1 2] [0 2 0 0->16] [0 0 0 0->0]
f 15.058705241 _18_ RTR  --- 2 DSR 92 [0 ffffffff 15 800] ------- [0:255 16:255 32 0] 4 [1 2] [0 2 0 0->16] [0 0 0 0->0]
s 15.059892437 _16_ RTR  --- 6 DSR 60 [0 0 0 0] ------- [16:255 0:255 254 21] 4 [0 2] [1 2 4 0->16] [0 0 0 0->0]
r 15.060285579 _12_ RTR  --- 5 DSR 60 [13a c 10 800] ------- [16:255 0:255 254 12] 4 [0 2] [1 2 4 0->16] [0 0 0 0->0]
f 15.060285579 _12_ RTR  --- 5 DSR 60 [13a c 10 800] ------- [16:255 0:255 253 6] 4 [0 2] [1 2 4 0->16] [0 0 0 0->0]
f 15.060426346 _10_ RTR  --- 2 DSR 68 [0 ffffffff 6 800] ------- [0:255 16:255 32 0] 3 [1 2] [0 2 0 0->16] [0 0 0 0->0]
s 15.061174972 _16_ RTR  --- 7 DSR 68 [0 0 0 0] ------- [16:255 0:255 254 19] 5 [0 2] [1 2 5 0->16] [0 0 0 0->0]
f 15.061708094 _20_ RTR  --- 2 DSR 92 [0 ffffffff 15 800] ------- [0:255 16:255 32 0] 4 [1 2] [0 2 0 0->16] [0 0 0 0->0]
r 15.062243579 _6_ RTR  --- 5 DSR 60 [13a 6 c 800] ------- [16:255 0:255 253 6] 4 [0 2] [1 2 4 0->16] [0 0 0 0->0]
f 15.062243579 _6_ RTR  --- 5 DSR 60 [13a 6 c 800] ------- [16:255 0:255 252 0] 4 [0 2] [1 2 4 0->16] [0 0 0 0->0]
s 15.063821548 _16_ RTR  --- 8 DSR 68 [0 0 0 0] ------- [16:255 0:255 254 15] 5 [0 2] [1 2 5 0->16] [0 0 0 0->0]
r 15.064201579 _0_ RTR  --- 5 DSR 60 [13a 0 6 800] ------- [16:255 0:255 252 0] 4 [0 2] [1 2 4 0->16] [0 0 0 0->0]
SFESTs 15.064201579 _0_ 0 [0 -> 16] 1(1) to 6 [0 |6 12 16 ]
SFESTs 15.064201579 _0_ 3 [0 -> 16] 1(1) to 6 [0 |6 12 16 ]
s 15.064201579 _0_ RTR  --- 0 cbr 556 [0 0 0 0] ------- [0:0 16:0 32 6] [0] 0 0
r 15.065988659 _17_ RTR  --- 2 DSR 92 [0 ffffffff 12 800] ------- [0:255 16:255 32 0] 4 [1 2] [0 2 0 0->16] [0 0 0 0->0]
s 15.065988659 _17_ RTR  --- 9 DSR 72 [0 0 0 0] ------- [17:255 0:255 255 18] 5 [0 2] [1 2 6 0->16] [0 0 0 0->0]
r 15.065988797 _14_ RTR  --- 2 DSR 92 [0 ffffffff 12 800] ------- [0:255 16:255 32 0] 4 [1 2] [0 2 0 0->16] [0 0 0 0->0]
s 15.065988797 _14_ RTR  --- 10 DSR 72 [0 0 0 0] ------- [14:255 0:255 255 18] 5 [0 2] [1 2 6 0->16] [0 0 0 0->0]
r 15.067897659 _18_ RTR  --- 9 DSR 72 [13a 12 11 800] ------- [17:255 0:255 255 18] 5 [0 2] [1 2 6 0->16] [0 0 0 0->0]
f 15.067897659 _18_ RTR  --- 9 DSR 72 [13a 12 11 800] ------- [17:255 0:255 254 21] 5 [0 2] [1 2 6 0->16] [0 0 0 0->0]
r 15.069971895 _21_ RTR  --- 9 DSR 72 [13a 15 12 800] ------- [17:255 0:255 254 21] 5 [0 2] [1 2 6 0->16] [0 0 0 0->0]
f 15.069971895 _21_ RTR  --- 9 DSR 72 [13a 15 12 800] ------- [17:255 0:255 253 6] 5 [0 2] [1 2 6 0->16] [0 0 0 0->0]
r 15.072026132 _6_ RTR  --- 9 DSR 72 [13a 6 15 800] ------- [17:255 0:255 253 6] 5 [0 2] [1 2 6 0->16] [0 0 0 0->0]
f 15.072026132 _6_ RTR  --- 9 DSR 72 [13a 6 15 800] ------- [17:255 0:255 252 0] 5 [0 2] [1 2 6 0->16] [0 0 0 0->0]
r 15.073320774 _1_ RTR  --- 2 DSR 48 [0 ffffffff 4 800] ------- [0:255 16:255 32 0] 2 [1 2] [0 2 0 0->16] [0 0 0 0->0]
r 15.073320774 _7_ RTR  --- 2 DSR 48 [0 ffffffff 4 800] ------- [0:255 16:255 32 0] 2 [1 2] [0 2 0 0->16] [0 0 0 0->0]
r 15.073321107 _3_ RTR  --- 2 DSR 48 [0 ffffffff 4 800] ------- [0:255 16:255 32 0] 2 [1 2] [0 2 0 0->16] [0 0 0 0->0]
r 15.073321107 _10_ RTR  --- 2 DSR 48 [0 ffffffff 4 800] ------- [0:255 16:255 32 0] 2 [1 2] [0 2 0 0->16] [0 0 0 0->0]
r 15.073321107 _5_ RTR  --- 2 DSR 48 [0 ffffffff 4 800] ------- [0:255 16:255 32 0] 2 [1 2] [0 2 0 0->16] [0 0 0 0->0]
r 15.073321186 _6_ RTR  --- 2 DSR 48 [0 ffffffff 4 800] ------- [0:255 16:255 32 0] 2 [1 2] [0 2 0 0->16] [0 0 0 0->0]
r 15.073321186 _0_ RTR  --- 2 DSR 48 [0 ffffffff 4 800] ------- [0:255 16:255 32 0] 2 [1 2] [0 2 0 0->16] [0 0 0 0->0]
r 15.073321186 _2_ RTR  --- 2 DSR 48 [0 ffffffff 4 800] ------- [0:255 16:255 32 0] 2 [1 2] [0 2 0 0->16] [0 0 0 0->0]
r 15.073321186 _8_ RTR  --- 2 DSR 48 [0 ffffffff 4 800] ------- [0:255 16:255 32 0] 2 [1 2] [0 2 0 0->16] [0 0 0 0->0]
r 15.074291107 _4_ RTR  --- 2 DSR 48 [0 ffffffff 1 800] ------- [0:255 16:255 32 0] 2 [1 2] [0 2 0 0->16] [0 0 0 0->0]
r 15.074291440 _0_ RTR  --- 2 DSR 48 [0 ffffffff 1 800] ------- [0:255 16:255 32 0] 2 [1 2] [0 2 0 0->16] [0 0 0 0->0]
r 15.074291440 _7_ RTR  --- 2 DSR 48 [0 ffffffff 1 800] ------- [0:255 16:255 32 0] 2 [1 2] [0 2 0 0->16] [0 0 0 0->0]
r 15.074291440 _2_ RTR  --- 2 DSR 48 [0 ffffffff 1 800] ------- [0:255 16:255 32 0] 2 [1 2] [0 2 0 0->16] [0 0 0 0->0]
r 15.074291519 _3_ RTR  --- 2 DSR 48 [0 ffffffff 1 800] ------- [0:255 16:255 32 0] 2 [1 2] [0 2 0 0->16] [0 0 0 0->0]
r 15.074291519 _5_ RTR  --- 2 DSR 48 [0 ffffffff 1 800] ------- [0:255 16:255 32 0] 2 [1 2] [0 2 0 0->16] [0 0 0 0->0]
r 15.075421774 _4_ RTR  --- 2 DSR 68 [0 ffffffff 7 800] ------- [0:255 16:255 32 0] 3 [1 2] [0 2 0 0->16] [0 0 0 0->0]
r 15.075421774 _10_ RTR  --- 2 DSR 68 [0 ffffffff 7 800] ------- [0:255 16:255 32 0] 3 [1 2] [0 2 0 0->16] [0 0 0 0->0]
r 15.075422107 _1_ RTR  --- 2 DSR 68 [0 ffffffff 7 800] ------- [0:255 16:255 32 0] 3 [1 2] [0 2 0 0->16] [0 0 0 0->0]
r 15.075422107 _6_ RTR  --- 2 DSR 68 [0 ffffffff 7 800] ------- [0:255 16:255 32 0] 3 [1 2] [0 2 0 0->16] [0 0 0 0->0]
r 15.075422107 _13_ RTR  --- 2 DSR 68 [0 ffffffff 7 800] ------- [0:255 16:255 32 0] 3 [1 2] [0 2 0 0->16] [0 0 0 0->0]
r 15.075422107 _8_ RTR  --- 2 DSR 68 [0 ffffffff 7 800] ------- [0:255 16:255 32 0] 3 [1 2] [0 2 0 0->16] [0 0 0 0->0]
r 15.075422186 _21_ RTR  --- 2 DSR 68 [0 ffffffff 7 800] ------- [0:255 16:255 32 0] 3 [1 2] [0 2 0 0->16] [0 0 0 0->0]
r 15.075422186 _9_ RTR  --- 2 DSR 68 [0 ffffffff 7 800] ------- [0:255 16:255 32 0] 3 [1 2] [0 2 0 0->16] [0 0 0 0->0]
r 15.075422186 _3_ RTR  --- 2 DSR 68 [0 ffffffff 7 800] ------- [0:255 16:255 32 0] 3 [1 2] [0 2 0 0->16] [0 0 0 0->0]
r 15.075422186 _20_ RTR  --- 2 DSR 68 [0 ffffffff 7 800] ------- [0:255 16:255 32 0] 3 [1 2] [0 2 0 0->16] [0 0 0 0->0]
r 15.075422186 _5_ RTR  --- 2 DSR 68 [0 ffffffff 7 800] ------- [0:255 16:255 32 0] 3 [1 2] [0 2 0 0->16] [0 0 0 0->0]
r 15.075422186 _11_ RTR  --- 2 DSR 68 [0 ffffffff 7 800] ------- [0:255 16:255 32 0] 3 [1 2] [0 2 0 0->16] [0 0 0 0->0]
f 15.076451695 _8_ RTR  --- 2 DSR 68 [0 ffffffff 4 800] ------- [0:255 16:255 32 0] 3 [1 2] [0 2 0 0->16] [0 0 0 0->0]
r 15.076704519 _18_ RTR  --- 2 DSR 92 [0 ffffffff 14 800] ------- [0:255 16:255 32 0] 4 [1 2] [0 2 0 0->16] [0 0 0 0->0]
r 15.076704519 _13_ RTR  --- 2 DSR 92 [0 ffffffff 14 800] ------- [0:255 16:255 32 0] 4 [1 2] [0 2 0 0->16] [0 0 0 0->0]
r 15.076704519 _14_ RTR  --- 2 DSR 92 [0 ffffffff 14 800] ------- [0:255 16:255 32 0] 4 [1 2] [0 2 0 0->16] [0 0 0 0->0]
r 15.076704657 _16_ RTR  --- 2 DSR 92 [0 ffffffff 14 800] ------- [0:255 16:255 32 0] 4 [1 2] [0 2 0 0->16] [0 0 0 0->0]
r 15.076704657 _10_ RTR  --- 2 DSR 92 [0 ffffffff 14 800] ------- [0:255 16:255 32 0] 4 [1 2] [0 2 0 0->16] [0 0 0 0->0]
r 15.076704657 _11_ RTR  --- 2 DSR 92 [0 ffffffff 14 800] ------- [0:255 16:255 32 0] 4 [1 2] [0 2 0 0->16] [0 0 0 0->0]
r 15.076704657 _17_ RTR  --- 2 DSR 92 [0 ffffffff 14 800] ------- [0:255 16:255 32 0] 4 [1 2] [0 2 0 0->16] [0 0 0 0->0]
r 15.076704852 _21_ RTR  --- 2 DSR 92 [0 ffffffff 14 800] ------- [0:255 16:255 32 0] 4 [1 2] [0 2 0 0->16] [0 0 0 0->0]
r 15.076704931 _7_ RTR  --- 2 DSR 92 [0 ffffffff 14 800] ------- [0:255 16:255 32 0] 4 [1 2] [0 2 0 0->16] [0 0 0 0->0]
r 15.076704931 _19_ RTR  --- 2 DSR 92 [0 ffffffff 14 800] ------- [0:255 16:255 32 0] 4 [1 2] [0 2 0 0->16] [0 0 0 0->0]
r 15.076704931 _8_ RTR  --- 2 DSR 92 [0 ffffffff 14 800] ------- [0:255 16:255 32 0] 4 [1 2] [0 2 0 0->16] [0 0 0 0->0]
f 15.077237747 _5_ RTR  --- 2 DSR 68 [0 ffffffff 4 800] ------- [0:255 16:255 32 0] 3 [1 2] [0 2 0 0->16] [0 0 0 0->0]
r 15.077854990 _7_ RTR  --- 2 DSR 68 [0 ffffffff a 800] ------- [0:255 16:255 32 0] 3 [1 2] [0 2 0 0->16] [0 0 0 0->0]
r 15.077854990 _13_ RTR  --- 2 DSR 68 [0 ffffffff a 800] ------- [0:255 16:255 32 0] 3 [1 2] [0 2 0 0->16] [0 0 0 0->0]
r 15.077855128 _21_ RTR  --- 2 DSR 68 [0 ffffffff a 800] ------- [0:255 16:255 32 0] 3 [1 2] [0 2 0 0->16] [0 0 0 0->0]
r 15.077855128 _20_ RTR  --- 2 DSR 68 [0 ffffffff a 800] ------- [0:255 16:255 32 0] 3 [1 2] [0 2 0 0->16] [0 0 0 0->0]
r 15.077855324 _4_ RTR  --- 2 DSR 68 [0 ffffffff a 800] ------- [0:255 16:255 32 0] 3 [1 2] [0 2 0 0->16] [0 0 0 0->0]
r 15.077855324 _9_ RTR  --- 2 DSR 68 [0 ffffffff a 800] ------- [0:255 16:255 32 0] 3 [1 2] [0 2 0 0->16] [0 0 0 0->0]
r 15.077855324 _16_ RTR  --- 2 DSR 68 [0 ffffffff a 800] ------- [0:255 16:255 32 0] 3 [1 2] [0 2 0 0->16] [0 0 0 0->0]
r 15.077855324 _11_ RTR  --- 2 DSR 68 [0 ffffffff a 800] ------- [0:255 16:255 32 0] 3 [1 2] [0 2 0 0->16] [0 0 0 0->0]
r 15.077855402 _19_ RTR  --- 2 DSR 68 [0 ffffffff a 800] ------- [0:255 16:255 32 0] 3 [1 2] [0 2 0 0->16] [0 0 0 0->0]
r 15.077855402 _12_ RTR  --- 2 DSR 68 [0 ffffffff a 800] ------- [0:255 16:255 32 0] 3 [1 2] [0 2 0 0->16] [0 0 0 0->0]
r 15.077855402 _6_ RTR  --- 2 DSR 68 [0 ffffffff a 800] ------- [0:255 16:255 32 0] 3 [1 2] [0 2 0 0->16] [0 0 0 0->0]
r 15.077855402 _18_ RTR  --- 2 DSR 68 [0 ffffffff a 800] ------- [0:255 16:255 32 0] 3 [1 2] [0 2 0 0->16] [0 0 0 0->0]
r 15.077855402 _8_ RTR  --- 2 DSR 68 [0 ffffffff a 800] ------- [0:255 16:255 32 0] 3 [1 2] [0 2 0 0->16] [0 0 0 0->0]
r 15.077855402 _14_ RTR  --- 2 DSR 68 [0 ffffffff a 800] ------- [0:255 16:255 32 0] 3 [1 2] [0 2 0 0->16] [0 0 0 0->0]
r 15.079594817 _18_ RTR  --- 10 DSR 72 [13a 12 e 800] ------- [14:255 0:255 255 18] 5 [0 2] [1 2 6 0->16] [0 0 0 0->0]
f 15.079594817 _18_ RTR  --- 10 DSR 72 [13a 12 e 800] ------- [14:255 0:255 254 21] 5 [0 2] [1 2 6 0->16] [0 0 0 0->0]
r 15.081151621 _10_ RTR  --- 2 DSR 92 [0 ffffffff d 800] ------- [0:255 16:255 32 0] 4 [1 2] [0 2 0 0->16] [0 0 0 0->0]
r 15.081151621 _21_ RTR  --- 2 DSR 92 [0 ffffffff d 800] ------- [0:255 16:255 32 0] 4 [1 2] [0 2 0 0->16] [0 0 0 0->0]
r 15.081151621 _16_ RTR  --- 2 DSR 92 [0 ffffffff d 800] ------- [0:255 16:255 32 0] 4 [1 2] [0 2 0 0->16] [0 0 0 0->0]
r 15.081151621 _20_ RTR  --- 2 DSR 92 [0 ffffffff d 800] ------- [0:255 16:255 32 0] 4 [1 2] [0 2 0 0->16] [0 0 0 0->0]
r 15.081151759 _19_ RTR  --- 2 DSR 92 [0 ffffffff d 800] ------- [0:255 16:255 32 0] 4 [1 2] [0 2 0 0->16] [0 0 0 0->0]
r 15.081151759 _18_ RTR  --- 2 DSR 92 [0 ffffffff d 800] ------- [0:255 16:255 32 0] 4 [1 2] [0 2 0 0->16] [0 0 0 0->0]
r 15.081151955 _7_ RTR  --- 2 DSR 92 [0 ffffffff d 800] ------- [0:255 16:255 32 0] 4 [1 2] [0 2 0 0->16] [0 0 0 0->0]
r 15.081151955 _12_ RTR  --- 2 DSR 92 [0 ffffffff d 800] ------- [0:255 16:255 32 0] 4 [1 2] [0 2 0 0->16] [0 0 0 0->0]
r 15.081151955 _14_ RTR  --- 2 DSR 92 [0 ffffffff d 800] ------- [0:255 16:255 32 0] 4 [1 2] [0 2 0 0->16] [0 0 0 0->0]
r 15.081152033 _15_ RTR  --- 2 DSR 92 [0 ffffffff d 800] ------- [0:255 16:255 32 0] 4 [1 2] [0 2 0 0->16] [0 0 0 0->0]
r 15.081152033 _9_ RTR  --- 2 DSR 92 [0 ffffffff d 800] ------- [0:255 16:255 32 0] 4 [1 2] [0 2 0 0->16] [0 0 0 0->0]
r 15.081152033 _11_ RTR  --- 2 DSR 92 [0 ffffffff d 800] ------- [0:255 16:255 32 0] 4 [1 2] [0 2 0 0->16] [0 0 0 0->0]
r 15.081152033 _17_ RTR  --- 2 DSR 92 [0 ffffffff d 800] ------- [0:255 16:255 32 0] 4 [1 2] [0 2 0 0->16] [0 0 0 0->0]
s 15.082209584 _16_ RTR  --- 12 DSR 60 [0 0 0 0] ------- [16:255 0:255 254 10] 4 [0 2] [1 2 4 0->16] [0 0 0 0->0]
f 15.082635803 _2_ RTR  --- 2 DSR 68 [0 ffffffff 4 800] ------- [0:255 16:255 32 0] 3 [1 2] [0 2 0 0->16] [0 0 0 0->0]
s 15.082725627 _16_ RTR  --- 11 DSR 68 [0 0 0 0] ------- [16:255 0:255 254 20] 5 [0 2] [1 2 5 0->16] [0 0 0 0->0]
r 15.082995036 _21_ RTR  --- 6 DSR 60 [13a 15 10 800] ------- [16:255 0:255 254 21] 4 [0 2] [1 2 4 0->16] [0 0 0 0->0]
f 15.082995036 _21_ RTR  --- 6 DSR 60 [13a 15 10 800] ------- [16:255 0:255 253 6] 4 [0 2] [1 2 4 0->16] [0 0 0 0->0]
f 15.083376803 _11_ RTR  --- 2 DSR 92 [0 ffffffff 7 800] ------- [0:255 16:255 32 0] 4 [1 2] [0 2 0 0->16] [0 0 0 0->0]
s 15.084858395 _16_ RTR  --- 13 DSR 68 [0 0 0 0] ------- [16:255 0:255 254 13] 5 [0 2] [1 2 5 0->16] [0 0 0 0->0]
r 15.084953272 _6_ RTR  --- 6 DSR 60 [13a 6 15 800] ------- [16:255 0:255 253 6] 4 [0 2] [1 2 4 0->16] [0 0 0 0->0]
f 15.084953272 _6_ RTR  --- 6 DSR 60 [13a 6 15 800] ------- [16:255 0:255 252 0] 4 [0 2] [1 2 4 0->16] [0 0 0 0->0]
r 15.087027272 _0_ RTR  --- 9 DSR 72 [13a 0 6 800] ------- [17:255 0:255 252 0] 5 [0 2] [1 2 6 0->16] [0 0 0 0->0]
r 15.089438979 _2_ RTR  --- 2 DSR 68 [0 ffffffff 5 800] ------- [0:255 16:255 32 0] 3 [1 2] [0 2 0 0->16] [0 0 0 0->0]
r 15.089438979 _8_ RTR  --- 2 DSR 68 [0 ffffffff 5 800] ------- [0:255 16:255 32 0] 3 [1 2] [0 2 0 0->16] [0 0 0 0->0]
r 15.089439313 _4_ RTR  --- 2 DSR 68 [0 ffffffff 5 800] ------- [0:255 16:255 32 0] 3 [1 2] [0 2 0 0->16] [0 0 0 0->0]
r 15.089439313 _11_ RTR  --- 2 DSR 68 [0 ffffffff 5 800] ------- [0:255 16:255 32 0] 3 [1 2] [0 2 0 0->16] [0 0 0 0->0]
r 15.089439391 _7_ RTR  --- 2 DSR 68 [0 ffffffff 5 800] ------- [0:255 16:255 32 0] 3 [1 2] [0 2 0 0->16] [0 0 0 0->0]
r 15.089439391 _1_ RTR  --- 2 DSR 68 [0 ffffffff 5 800] ------- [0:255 16:255 32 0] 3 [1 2] [0 2 0 0->16] [0 0 0 0->0]
r 15.090549313 _11_ RTR  --- 2 DSR 68 [0 ffffffff 8 800] ------- [0:255 16:255 32 0] 3 [1 2] [0 2 0 0->16] [0 0 0 0->0]
r 15.090549646 _8_ RTR  --- 2 DSR 68 [0 ffffffff 2 800] ------- [0:255 16:255 32 0] 3 [1 2] [0 2 0 0->16] [0 0 0 0->0]
r 15.090549646 _2_ RTR  --- 2 DSR 68 [0 ffffffff 8 800] ------- [0:255 16:255 32 0] 3 [1 2] [0 2 0 0->16] [0 0 0 0->0]
r 15.090549646 _14_ RTR  --- 2 DSR 68 [0 ffffffff 8 800] ------- [0:255 16:255 32 0] 3 [1 2] [0 2 0 0->16] [0 0 0 0->0]
r 15.090549725 _20_ RTR  --- 2 DSR 68 [0 ffffffff 8 800] ------- [0:255 16:255 32 0] 3 [1 2] [0 2 0 0->16] [0 0 0 0->0]
r 15.092742189 _20_ RTR  --- 11 DSR 68 [13a 14 10 800] ------- [16:255 0:255 254 20] 5 [0 2] [1 2 5 0->16] [0 0 0 0->0]
f 15.092742189 _20_ RTR  --- 11 DSR 68 [13a 14 10 800] ------- [16:255 0:255 253 21] 5 [0 2] [1 2 5 0->16] [0 0 0 0->0]
s 15.094201579 _0_ RTR  --- 3 cbr 556 [0 0 0 0] ------- [0:0 16:0 32 6] [1] 0 0
r 15.094796758 _21_ RTR  --- 10 DSR 72 [13a 15 12 800] ------- [14:255 0:255 254 21] 5 [0 2] [1 2 6 0->16] [0 0 0 0->0]
f 15.094796758 _21_ RTR  --- 10 DSR 72 [13a 15 12 800] ------- [14:255 0:255 253 6] 5 [0 2] [1 2 6 0->16] [0 0 0 0->0]
r 15.096805427 _0_ RTR  --- 6 DSR 60 [13a 0 6 800] ------- [16:255 0:255 252 0] 4 [0 2] [1 2 4 0->16] [0 0 0 0->0]
r 15.099225037 _6_ RTR  --- 10 DSR 72 [13a 6 15 800] ------- [14:255 0:255 253 6] 5 [0 2] [1 2 6 0->16] [0 0 0 0->0]
f 15.099225037 _6_ RTR  --- 10 DSR 72 [13a 6 15 800] ------- [14:255 0:255 252 0] 5 [0 2] [1 2 6 0->16] [0 0 0 0->0]
r 15.101439037 _0_ RTR  --- 10 DSR 72 [13a 0 6 800] ------- [14:255 0:255 252 0] 5 [0 2] [1 2 6 0->16] [0 0 0 0->0]
r 15.103965832 _13_ RTR  --- 13 DSR 68 [13a d 10 800] ------- [16:255 0:255 254 13] 5 [0 2] [1 2 5 0->16] [0 0 0 0->0]
f 15.103965832 _13_ RTR  --- 13 DSR 68 [13a d 10 800] ------- [16:255 0:255 253 9] 5 [0 2] [1 2 5 0->16] [0 0 0 0->0]
r 15.105592775 _8_ RTR  --- 2 DSR 92 [0 ffffffff b 800] ------- [0:255 16:255 32 0] 4 [1 2] [0 2 0 0->16] [0 0 0 0->0]
r 15.105592775 _14_ RTR  --- 2 DSR 92 [0 ffffffff b 800] ------- [0:255 16:255 32 0] 4 [1 2] [0 2 0 0->16] [0 0 0 0->0]
r 15.105592913 _20_ RTR  --- 2 DSR 92 [0 ffffffff b 800] ------- [0:255 16:255 32 0] 4 [1 2] [0 2 0 0->16] [0 0 0 0->0]
r 15.105593108 _5_ RTR  --- 2 DSR 92 [0 ffffffff b 800] ------- [0:255 16:255 32 0] 4 [1 2] [0 2 0 0->16] [0 0 0 0->0]
r 15.105593108 _10_ RTR  --- 2 DSR 92 [0 ffffffff b 800] ------- [0:255 16:255 32 0] 4 [1 2] [0 2 0 0->16] [0 0 0 0->0]
r 15.105593108 _17_ RTR  --- 2 DSR 92 [0 ffffffff b 800] ------- [0:255 16:255 32 0] 4 [1 2] [0 2 0 0->16] [0 0 0 0->0]
r 15.105593187 _18_ RTR  --- 2 DSR 92 [0 ffffffff b 800] ------- [0:255 16:255 32 0] 4 [1 2] [0 2 0 0->16] [0 0 0 0->0]
r 15.105593187 _13_ RTR  --- 2 DSR 92 [0 ffffffff b 800] ------- [0:255 16:255 32 0] 4 [1 2] [0 2 0 0->16] [0 0 0 0->0]
r 15.105593187 _7_ RTR  --- 2 DSR 92 [0 ffffffff b 800] ------- [0:255 16:255 32 0] 4 [1 2] [0 2 0 0->16] [0 0 0 0->0]
r 15.107461423 _9_ RTR  --- 13 DSR 68 [13a 9 d 800] ------- [16:255 0:255 253 9] 5 [0 2] [1 2 5 0->16] [0 0 0 0->0]
f 15.107461423 _9_ RTR  --- 13 DSR 68 [13a 9 d 800] ------- [16:255 0:255 252 3] 5 [0 2] [1 2 5 0->16] [0 0 0 0->0]
r 15.109888477 _21_ RTR  --- 11 DSR 68 [13a 15 14 800] ------- [16:255 0:255 253 21] 5 [0 2] [1 2 5 0->16] [0 0 0 0->0]
f 15.109888477 _21_ RTR  --- 11 DSR 68 [13a 15 14 800] ------- [16:255 0:255 252 6] 5 [0 2] [1 2 5 0->16] [0 0 0 0->0]
r 15.111846949 _10_ RTR  --- 12 DSR 60 [13a a 10 800] ------- [16:255 0:255 254 10] 4 [0 2] [1 2 4 0->16] [0 0 0 0->0]
f 15.111846949 _10_ RTR  --- 12 DSR 60 [13a a 10 800] ------- [16:255 0:255 253 6] 4 [0 2] [1 2 4 0->16] [0 0 0 0->0]
r 15.114029656 _6_ RTR  --- 11 DSR 68 [13a 6 15 800] ------- [16:255 0:255 252 6] 5 [0 2] [1 2 5 0->16] [0 0 0 0->0]
f 15.114029656 _6_ RTR  --- 11 DSR 68 [13a 6 15 800] ------- [16:255 0:255 251 0] 5 [0 2] [1 2 5 0->16] [0 0 0 0->0]
r 15.116071990 _3_ RTR  --- 13 DSR 68 [13a 3 9 800] ------- [16:255 0:255 252 3] 5 [0 2] [1 2 5 0->16] [0 0 0 0->0]
f 15.116071990 _3_ RTR  --- 13 DSR 68 [13a 3 9 800] ------- [16:255 0:255 251 0] 5 [0 2] [1 2 5 0->16] [0 0 0 0->0]
r 15.120817304 _6_ RTR  --- 12 DSR 60 [13a 6 a 800] ------- [16:255 0:255 253 6] 4 [0 2] [1 2 4 0->16] [0 0 0 0->0]
f 15.120817304 _6_ RTR  --- 12 DSR 60 [13a 6 a 800] ------- [16:255 0:255 252 0] 4 [0 2] [1 2 4 0->16] [0 0 0 0->0]
r 15.123059304 _0_ RTR  --- 11 DSR 68 [13a 0 6 800] ------- [16:255 0:255 251 0] 5 [0 2] [1 2 5 0->16] [0 0 0 0->0]
r 15.125467099 _15_ RTR  --- 8 DSR 68 [13a f 10 800] ------- [16:255 0:255 254 15] 5 [0 2] [1 2 5 0->16] [0 0 0 0->0]
f 15.125467099 _15_ RTR  --- 8 DSR 68 [13a f 10 800] ------- [16:255 0:255 253 9] 5 [0 2] [1 2 5 0->16] [0 0 0 0->0]
s 15.126405074 _0_ AGT  --- 14 cbr 512 [0 0 0 0] ------- [0:0 16:0 32 0] [2] 0 0
r 15.126405074 _0_ RTR  --- 14 cbr 512 [0 0 0 0] ------- [0:0 16:0 32 0] [2] 0 0
SFESTs 15.126405074 _0_ 14 [0 -> 16] 1(1) to 6 [0 |6 12 16 ]
s 15.126405074 _0_ RTR  --- 14 cbr 556 [0 0 0 0] ------- [0:0 16:0 32 6] [2] 0 0
r 15.127749099 _9_ RTR  --- 8 DSR 68 [13a 9 f 800] ------- [16:255 0:255 253 9] 5 [0 2] [1 2 5 0->16] [0 0 0 0->0]
f 15.127749099 _9_ RTR  --- 8 DSR 68 [13a 9 f 800] ------- [16:255 0:255 252 3] 5 [0 2] [1 2 5 0->16] [0 0 0 0->0]
r 15.129937433 _0_ RTR  --- 12 DSR 60 [13a 0 6 800] ------- [16:255 0:255 252 0] 4 [0 2] [1 2 4 0->16] [0 0 0 0->0]
r 15.132078766 _0_ RTR  --- 13 DSR 68 [13a 0 3 800] ------- [16:255 0:255 251 0] 5 [0 2] [1 2 5 0->16] [0 0 0 0->0]
r 15.134585766 _3_ RTR  --- 8 DSR 68 [13a 3 9 800] ------- [16:255 0:255 252 3] 5 [0 2] [1 2 5 0->16] [0 0 0 0->0]
f 15.134585766 _3_ RTR  --- 8 DSR 68 [13a 3 9 800] ------- [16:255 0:255 251 0] 5 [0 2] [1 2 5 0->16] [0 0 0 0->0]
r 15.136586766 _0_ RTR  --- 8 DSR 68 [13a 0 3 800] ------- [16:255 0:255 251 0] 5 [0 2] [1 2 5 0->16] [0 0 0 0->0]
r 15.139013561 _19_ RTR  --- 7 DSR 68 [13a 13 10 800] ------- [16:255 0:255 254 19] 5 [0 2] [1 2 5 0->16] [0 0 0 0->0]
f 15.139013561 _19_ RTR  --- 7 DSR 68 [13a 13 10 800] ------- [16:255 0:255 253 9] 5 [0 2] [1 2 5 0->16] [0 0 0 0->0]
r 15.141275797 _9_ RTR  --- 7 DSR 68 [13a 9 13 800] ------- [16:255 0:255 253 9] 5 [0 2] [1 2 5 0->16] [0 0 0 0->0]
f 15.141275797 _9_ RTR  --- 7 DSR 68 [13a 9 13 800] ------- [16:255 0:255 252 3] 5 [0 2] [1 2 5 0->16] [0 0 0 0->0]
r 15.143477797 _3_ RTR  --- 7 DSR 68 [13a 3 9 800] ------- [16:255 0:255 252 3] 5 [0 2] [1 2 5 0->16] [0 0 0 0->0]
f 15.143477797 _3_ RTR  --- 7 DSR 68 [13a 3 9 800] ------- [16:255 0:255 251 0] 5 [0 2] [1 2 5 0->16] [0 0 0 0->0]
r 15.145918797 _0_ RTR  --- 7 DSR 68 [13a 0 3 800] ------- [16:255 0:255 251 0] 5 [0 2] [1 2 5 0->16] [0 0 0 0->0]
r 15.154264797 _6_ RTR  --- 0 cbr 556 [13a 6 0 800] ------- [0:0 16:0 32 6] [0] 1 0
f 15.154264797 _6_ RTR  --- 0 cbr 556 [13a 6 0 800] ------- [0:0 16:0 31 12] [0] 1 0
r 15.160471464 _6_ RTR  --- 3 cbr 556 [13a 6 0 800] ------- [0:0 16:0 32 6] [1] 1 0
f 15.160471464 _6_ RTR  --- 3 cbr 556 [13a 6 0 800] ------- [0:0 16:0 31 12] [1] 1 0
r 15.166398130 _6_ RTR  --- 14 cbr 556 [13a 6 0 800] ------- [0:0 16:0 32 6] [2] 1 0
f 15.166398130 _6_ RTR  --- 14 cbr 556 [13a 6 0 800] ------- [0:0 16:0 31 12] [2] 1 0
r 15.172564130 _12_ RTR  --- 0 cbr 556 [13a c 6 800] ------- [0:0 16:0 31 12] [0] 2 0