n -t * -s 0  -x 100 -y 0 -Z 0 -z 30  -v circle -c black
n -t * -s 1  -x 300 -y 0 -Z 0 -z 30  -v circle -c black
n -t * -s 2  -x 500 -y 0 -Z 0 -z 30  -v circle -c black
n -t * -s 3  -x 100 -y 100 -Z 0 -z 30  -v circle -c black
n -t * -s 4  -x 300 -y 100 -Z 0 -z 30  -v circle -c black
n -t * -s 5  -x 500 -y 100 -Z 0 -z 30  -v circle -c black
n -t * -s 6  -x 100 -y 200 -Z 0 -z 30  -v circle -c black
n -t * -s 7  -x 300 -y 200 -Z 0 -z 30  -v circle -c black
n -t * -s 8  -x 500 -y 200 -Z 0 -z 30  -v circle -c black
n -t * -s 9  -x 100 -y 300 -Z 0 -z 30  -v circle -c black
n -t * -s 10  -x 300 -y 300 -Z 0 -z 30  -v circle -c black
n -t * -s 11  -x 500 -y 300 -Z 0 -z 30  -v circle -c black
n -t * -s 12  -x 100 -y 400 -Z 0 -z 30  -v circle -c black
n -t * -s 13  -x 300 -y 400 -Z 0 -z 30  -v circle -c black
n -t * -s 14  -x 500 -y 400 -Z 0 -z 30  -v circle -c black
n -t * -s 15  -x 100 -y 500 -Z 0 -z 30  -v circle -c black
n -t * -s 16  -x 300 -y 500 -Z 0 -z 30  -v circle -c black
n -t * -s 17  -x 500 -y 500 -Z 0 -z 30  -v circle -c black
n -t * -s 18  -x 400 -y 500 -Z 0 -z 30  -v circle -c black
n -t * -s 19  -x 200 -y 500 -Z 0 -z 30  -v circle -c black
n -t * -s 20  -x 400 -y 400 -Z 0 -z 30  -v circle -c black
n -t * -s 21  -x 200 -y 400 -Z 0 -z 30  -v circle -c black
V -t * -v 1.0a5 -a 0
W -t * -x 500 -y 500
A -t * -n 1 -p 0 -o 0xffffffff -c 31 -a 1
A -t * -h 1 -m 2147483647 -s 0
+ -t 15.000000000 -s 0 -d -1 -p cbr -e 512 -c 2 -a 0 -i 0 -k AGT 
- -t 15.000000000 -s 0 -d -1 -p cbr -e 512 -c 2 -a 0 -i 0 -k AGT
h -t 15.000000000 -s 0 -d -1 -p cbr -e 512 -c 2 -a 0 -i 0 -k AGT
+ -t 15.007467171 -s 0 -d -1 -p DSR -e 32 -c 2 -a 0 -i 1 -k RTR 
- -t 15.007467171 -s 0 -d -1 -p DSR -e 32 -c 2 -a 0 -i 1 -k RTR
h -t 15.007467171 -s 0 -d -1 -p DSR -e 32 -c 2 -a 0 -i 1 -k RTR
+ -t 15.045580858 -s 0 -d -1 -p DSR -e 32 -c 2 -a 0 -i 2 -k RTR 
- -t 15.045580858 -s 0 -d -1 -p DSR -e 32 -c 2 -a 0 -i 2 -k RTR
h -t 15.045580858 -s 0 -d -1 -p DSR -e 32 -c 2 -a 0 -i 2 -k RTR
+ -t 15.047819084 -s 3 -d -1 -p DSR -e 48 -c 2 -a 0 -i 2 -k RTR 
- -t 15.047819084 -s 3 -d -1 -p DSR -e 48 -c 2 -a 0 -i 2 -k RTR
h -t 15.047819084 -s 3 -d -1 -p DSR -e 48 -c 2 -a 0 -i 2 -k RTR
+ -t 15.050805009 -s 6 -d -1 -p DSR -e 48 -c 2 -a 0 -i 2 -k RTR 
- -t 15.050805009 -s 6 -d -1 -p DSR -e 48 -c 2 -a 0 -i 2 -k RTR
h -t 15.050805009 -s 6 -d -1 -p DSR -e 48 -c 2 -a 0 -i 2 -k RTR
+ -t 15.051659392 -s 4 -d -1 -p DSR -e 48 -c 2 -a 0 -i 2 -k RTR 
- -t 15.051659392 -s 4 -d -1 -p DSR -e 48 -c 2 -a 0 -i 2 -k RTR
h -t 15.051659392 -s 4 -d -1 -p DSR -e 48 -c 2 -a 0 -i 2 -k RTR
+ -t 15.051887828 -s 9 -d -1 -p DSR -e 68 -c 2 -a 0 -i 2 -k RTR 
- -t 15.051887828 -s 9 -d -1 -p DSR -e 68 -c 2 -a 0 -i 2 -k RTR
h -t 15.051887828 -s 9 -d -1 -p DSR -e 68 -c 2 -a 0 -i 2 -k RTR
+ -t 15.052282900 -s 12 -d -1 -p DSR -e 68 -c 2 -a 0 -i 2 -k RTR 
- -t 15.052282900 -s 12 -d -1 -p DSR -e 68 -c 2 -a 0 -i 2 -k RTR
h -t 15.052282900 -s 12 -d -1 -p DSR -e 68 -c 2 -a 0 -i 2 -k RTR
+ -t 15.052949437 -s 0 -d -1 -p cbr -e 512 -c 2 -a 0 -i 3 -k AGT 
- -t 15.052949437 -s 0 -d -1 -p cbr -e 512 -c 2 -a 0 -i 3 -k AGT
h -t 15.052949437 -s 0 -d -1 -p cbr -e 512 -c 2 -a 0 -i 3 -k AGT
+ -t 15.053837173 -s 1 -d -1 -p DSR -e 48 -c 2 -a 0 -i 2 -k RTR 
- -t 15.053837173 -s 1 -d -1 -p DSR -e 48 -c 2 -a 0 -i 2 -k RTR
h -t 15.053837173 -s 1 -d -1 -p DSR -e 48 -c 2 -a 0 -i 2 -k RTR
+ -t 15.054344692 -s 21 -d -1 -p DSR -e 68 -c 2 -a 0 -i 2 -k RTR 
- -t 15.054344692 -s 21 -d -1 -p DSR -e 68 -c 2 -a 0 -i 2 -k RTR
h -t 15.054344692 -s 21 -d -1 -p DSR -e 68 -c 2 -a 0 -i 2 -k RTR
+ -t 15.055003657 -s 19 -d -1 -p DSR -e 92 -c 2 -a 0 -i 2 -k RTR 
- -t 15.055003657 -s 19 -d -1 -p DSR -e 92 -c 2 -a 0 -i 2 -k RTR
h -t 15.055003657 -s 19 -d -1 -p DSR -e 92 -c 2 -a 0 -i 2 -k RTR
+ -t 15.055095722 -s 16 -d 12 -p DSR -e 60 -c 2 -a 0 -i 5 -k RTR 
- -t 15.055095722 -s 16 -d 12 -p DSR -e 60 -c 2 -a 0 -i 5 -k RTR
h -t 15.055095722 -s 16 -d 12 -p DSR -e 60 -c 2 -a 0 -i 5 -k RTR
+ -t 15.055501086 -s 15 -d -1 -p DSR -e 92 -c 2 -a 0 -i 2 -k RTR 
- -t 15.055501086 -s 15 -d -1 -p DSR -e 92 -c 2 -a 0 -i 2 -k RTR
h -t 15.055501086 -s 15 -d -1 -p DSR -e 92 -c 2 -a 0 -i 2 -k RTR
+ -t 15.057849864 -s 7 -d -1 -p DSR -e 68 -c 2 -a 0 -i 2 -k RTR 
- -t 15.057849864 -s 7 -d -1 -p DSR -e 68 -c 2 -a 0 -i 2 -k RTR
h -t 15.057849864 -s 7 -d -1 -p DSR -e 68 -c 2 -a 0 -i 2 -k RTR
+ -t 15.058653861 -s 13 -d -1 -p DSR -e 92 -c 2 -a 0 -i 2 -k RTR 
- -t 15.058653861 -s 13 -d -1 -p DSR -e 92 -c 2 -a 0 -i 2 -k RTR
h -t 15.058653861 -s 13 -d -1 -p DSR -e 92 -c 2 -a 0 -i 2 -k RTR
+ -t 15.058705241 -s 18 -d -1 -p DSR -e 92 -c 2 -a 0 -i 2 -k RTR 
- -t 15.058705241 -s 18 -d -1 -p DSR -e 92 -c 2 -a 0 -i 2 -k RTR
h -t 15.058705241 -s 18 -d -1 -p DSR -e 92 -c 2 -a 0 -i 2 -k RTR
+ -t 15.059892437 -s 16 -d 21 -p DSR -e 60 -c 2 -a 0 -i 6 -k RTR 
- -t 15.059892437 -s 16 -d 21 -p DSR -e 60 -c 2 -a 0 -i 6 -k RTR
h -t 15.059892437 -s 16 -d 21 -p DSR -e 60 -c 2 -a 0 -i 6 -k RTR
+ -t 15.060285579 -s 12 -d 6 -p DSR -e 60 -c 2 -a 0 -i 5 -k RTR 
- -t 15.060285579 -s 12 -d 6 -p DSR -e 60 -c 2 -a 0 -i 5 -k RTR
h -t 15.060285579 -s 12 -d 6 -p DSR -e 60 -c 2 -a 0 -i 5 -k RTR
+ -t 15.060426346 -s 10 -d -1 -p DSR -e 68 -c 2 -a 0 -i 2 -k RTR 
- -t 15.060426346 -s 10 -d -1 -p DSR -e 68 -c 2 -a 0 -i 2 -k RTR
h -t 15.060426346 -s 10 -d -1 -p DSR -e 68 -c 2 -a 0 -i 2 -k RTR
+ -t 15.061174972 -s 16 -d 19 -p DSR -e 68 -c 2 -a 0 -i 7 -k RTR 
- -t 15.061174972 -s 16 -d 19 -p DSR -e 68 -c 2 -a 0 -i 7 -k RTR
h -t 15.061174972 -s 16 -d 19 -p DSR -e 68 -c 2 -a 0 -i 7 -k RTR
+ -t 15.061708094 -s 20 -d -1 -p DSR -e 92 -c 2 -a 0 -i 2 -k RTR 
- -t 15.061708094 -s 20 -d -1 -p DSR -e 92 -c 2 -a 0 -i 2 -k RTR
h -t 15.061708094 -s 20 -d -1 -p DSR -e 92 -c 2 -a 0 -i 2 -k RTR
+ -t 15.062243579 -s 6 -d 0 -p DSR -e 60 -c 2 -a 0 -i 5 -k RTR 
- -t 15.062243579 -s 6 -d 0 -p DSR -e 60 -c 2 -a 0 -i 5 -k RTR
h -t 15.062243579 -s 6 -d 0 -p DSR -e 60 -c 2 -a 0 -i 5 -k RTR
+ -t 15.063821548 -s 16 -d 15 -p DSR -e 68 -c 2 -a 0 -i 8 -k RTR 
- -t 15.063821548 -s 16 -d 15 -p DSR -e 68 -c 2 -a 0 -i 8 -k RTR
h -t 15.063821548 -s 16 -d 15 -p DSR -e 68 -c 2 -a 0 -i 8 -k RTR
+ -t 15.064201579 -s 0 -d 6 -p cbr -e 556 -c 2 -a 0 -i 0 -k RTR 
- -t 15.064201579 -s 0 -d 6 -p cbr -e 556 -c 2 -a 0 -i 0 -k RTR
h -t 15.064201579 -s 0 -d 6 -p cbr -e 556 -c 2 -a 0 -i 0 -k RTR
+ -t 15.065988659 -s 17 -d 18 -p DSR -e 72 -c 2 -a 0 -i 9 -k RTR 
- -t 15.065988659 -s 17 -d 18 -p DSR -e 72 -c 2 -a 0 -i 9 -k RTR
h -t 15.065988659 -s 17 -d 18 -p DSR -e 72 -c 2 -a 0 -i 9 -k RTR
+ -t 15.065988797 -s 14 -d 18 -p DSR -e 72 -c 2 -a 0 -i 10 -k RTR 
- -t 15.065988797 -s 14 -d 18 -p DSR -e 72 -c 2 -a 0 -i 10 -k RTR
h -t 15.065988797 -s 14 -d 18 -p DSR -e 72 -c 2 -a 0 -i 10 -k RTR
+ -t 15.067897659 -s 18 -d 21 -p DSR -e 72 -c 2 -a 0 -i 9 -k RTR 
- -t 15.067897659 -s 18 -d 21 -p DSR -e 72 -c 2 -a 0 -i 9 -k RTR
h -t 15.067897659 -s 18 -d 21 -p DSR -e 72 -c 2 -a 0 -i 9 -k RTR
+ -t 15.069971895 -s 21 -d 6 -p DSR -e 72 -c 2 -a 0 -i 9 -k RTR 
- -t 15.069971895 -s 21 -d 6 -p DSR -e 72 -c 2 -a 0 -i 9 -k RTR
h -t 15.069971895 -s 21 -d 6 -p DSR -e 72 -c 2 -a 0 -i 9 -k RTR
+ -t 15.072026132 -s 6 -d 0 -p DSR -e 72 -c 2 -a 0 -i 9 -k RTR 
- -t 15.072026132 -s 6 -d 0 -p DSR -e 72 -c 2 -a 0 -i 9 -k RTR
h -t 15.072026132 -s 6 -d 0 -p DSR -e 72 -c 2 -a 0 -i 9 -k RTR
+ -t 15.076451695 -s 8 -d -1 -p DSR -e 68 -c 2 -a 0 -i 2 -k RTR 
- -t 15.076451695 -s 8 -d -1 -p DSR -e 68 -c 2 -a 0 -i 2 -k RTR
h -t 15.076451695 -s 8 -d -1 -p DSR -e 68 -c 2 -a 0 -i 2 -k RTR
+ -t 15.077237747 -s 5 -d -1 -p DSR -e 68 -c 2 -a 0 -i 2 -k RTR 
- -t 15.077237747 -s 5 -d -1 -p DSR -e 68 -c 2 -a 0 -i 2 -k RTR
h -t 15.077237747 -s 5 -d -1 -p DSR -e 68 -c 2 -a 0 -i 2 -k RTR
+ -t 15.079594817 -s 18 -d 21 -p DSR -e 72 -c 2 -a 0 -i 10 -k RTR 
- -t 15.079594817 -s 18 -d 21 -p DSR -e 72 -c 2 -a 0 -i 10 -k RTR
h -t 15.079594817 -s 18 -d 21 -p DSR -e 72 -c 2 -a 0 -i 10 -k RTR
+ -t 15.082209584 -s 16 -d 10 -p DSR -e 60 -c 2 -a 0 -i 12 -k RTR 
- -t 15.082209584 -s 16 -d 10 -p DSR -e 60 -c 2 -a 0 -i 12 -k RTR
h -t 15.082209584 -s 16 -d 10 -p DSR -e 60 -c 2 -a 0 -i 12 -k RTR
+ -t 15.082635803 -s 2 -d -1 -p DSR -e 68 -c 2 -a 0 -i 2 -k RTR 
- -t 15.082635803 -s 2 -d -1 -p DSR -e 68 -c 2 -a 0 -i 2 -k RTR
h -t 15.082635803 -s 2 -d -1 -p DSR -e 68 -c 2 -a 0 -i 2 -k RTR
+ -t 15.082725627 -s 16 -d 20 -p DSR -e 68 -c 2 -a 0 -i 11 -k RTR 
- -t 15.082725627 -s 16 -d 20 -p DSR -e 68 -c 2 -a 0 -i 11 -k RTR
h -t 15.082725627 -s 16 -d 20 -p DSR -e 68 -c 2 -a 0 -i 11 -k RTR
+ -t 15.082995036 -s 21 -d 6 -p DSR -e 60 -c 2 -a 0 -i 6 -k RTR 
- -t 15.082995036 -s 21 -d 6 -p DSR -e 60 -c 2 -a 0 -i 6 -k RTR
h -t 15.082995036 -s 21 -d 6 -p DSR -e 60 -c 2 -a 0 -i 6 -k RTR
+ -t 15.083376803 -s 11 -d -1 -p DSR -e 92 -c 2 -a 0 -i 2 -k RTR 
- -t 15.083376803 -s 11 -d -1 -p DSR -e 92 -c 2 -a 0 -i 2 -k RTR
h -t 15.083376803 -s 11 -d -1 -p DSR -e 92 -c 2 -a 0 -i 2 -k RTR
+ -t 15.084858395 -s 16 -d 13 -p DSR -e 68 -c 2 -a 0 -i 13 -k RTR 
- -t 15.084858395 -s 16 -d 13 -p DSR -e 68 -c 2 -a 0 -i 13 -k RTR
h -t 15.084858395 -s 16 -d 13 -p DSR -e 68 -c 2 -a 0 -i 13 -k RTR
+ -t 15.084953272 -s 6 -d 0 -p DSR -e 60 -c 2 -a 0 -i 6 -k RTR 
- -t 15.084953272 -s 6 -d 0 -p DSR -e 60 -c 2 -a 0 -i 6 -k RTR
h -t 15.084953272 -s 6 -d 0 -p DSR -e 60 -c 2 -a 0 -i 6 -k RTR
+ -t 15.092742189 -s 20 -d 21 -p DSR -e 68 -c 2 -a 0 -i 11 -k RTR 
- -t 15.092742189 -s 20 -d 21 -p DSR -e 68 -c 2 -a 0 -i 11 -k RTR
h -t 15.092742189 -s 20 -d 21 -p DSR -e 68 -c 2 -a 0 -i 11 -k RTR
+ -t 15.094201579 -s 0 -d 6 -p cbr -e 556 -c 2 -a 0 -i 3 -k RTR 
- -t 15.094201579 -s 0 -d 6 -p cbr -e 556 -c 2 -a 0 -i 3 -k RTR
h -t 15.094201579 -s 0 -d 6 -p cbr -e 556 -c 2 -a 0 -i 3 -k RTR
+ -t 15.094796758 -s 21 -d 6 -p DSR -e 72 -c 2 -a 0 -i 10 -k RTR 
- -t 15.094796758 -s 21 -d 6 -p DSR -e 72 -c 2 -a 0 -i 10 -k RTR
h -t 15.094796758 -s 21 -d 6 -p DSR -e 72 -c 2 -a 0 -i 10 -k RTR
+ -t 15.099225037 -s 6 -d 0 -p DSR -e 72 -c 2 -a 0 -i 10 -k RTR 
- -t 15.099225037 -s 6 -d 0 -p DSR -e 72 -c 2 -a 0 -i 10 -k RTR
h -t 15.099225037 -s 6 -d 0 -p DSR -e 72 -c 2 -a 0 -i 10 -k RTR
+ -t 15.103965832 -s 13 -d 9 -p DSR -e 68 -c 2 -a 0 -i 13 -k RTR 
- -t 15.103965832 -s 13 -d 9 -p DSR -e 68 -c 2 -a 0 -i 13 -k RTR
h -t 15.103965832 -s 13 -d 9 -p DSR -e 68 -c 2 -a 0 -i 13 -k RTR
+ -t 15.107461423 -s 9 -d 3 -p DSR -e 68 -c 2 -a 0 -i 13 -k RTR 
- -t 15.107461423 -s 9 -d 3 -p DSR -e 68 -c 2 -a 0 -i 13 -k RTR
h -t 15.107461423 -s 9 -d 3 -p DSR -e 68 -c 2 -a 0 -i 13 -k RTR
+ -t 15.109888477 -s 21 -d 6 -p DSR -e 68 -c 2 -a 0 -i 11 -k RTR 
- -t 15.109888477 -s 21 -d 6 -p DSR -e 68 -c 2 -a 0 -i 11 -k RTR
h -t 15.109888477 -s 21 -d 6 -p DSR -e 68 -c 2 -a 0 -i 11 -k RTR
+ -t 15.111846949 -s 10 -d 6 -p DSR -e 60 -c 2 -a 0 -i 12 -k RTR 
- -t 15.111846949 -s 10 -d 6 -p DSR -e 60 -c 2 -a 0 -i 12 -k RTR
h -t 15.111846949 -s 10 -d 6 -p DSR -e 60 -c 2 -a 0 -i 12 -k RTR
+ -t 15.114029656 -s 6 -d 0 -p DSR -e 68 -c 2 -a 0 -i 11 -k RTR 
- -t 15.114029656 -s 6 -d 0 -p DSR -e 68 -c 2 -a 0 -i 11 -k RTR
h -t 15.114029656 -s 6 -d 0 -p DSR -e 68 -c 2 -a 0 -i 11 -k RTR
+ -t 15.116071990 -s 3 -d 0 -p DSR -e 68 -c 2 -a 0 -i 13 -k RTR 
- -t 15.116071990 -s 3 -d 0 -p DSR -e 68 -c 2 -a 0 -i 13 -k RTR
h -t 15.116071990 -s 3 -d 0 -p DSR -e 68 -c 2 -a 0 -i 13 -k RTR
+ -t 15.120817304 -s 6 -d 0 -p DSR -e 60 -c 2 -a 0 -i 12 -k RTR 
- -t 15.120817304 -s 6 -d 0 -p DSR -e 60 -c 2 -a 0 -i 12 -k RTR
h -t 15.120817304 -s 6 -d 0 -p DSR -e 60 -c 2 -a 0 -i 12 -k RTR
+ -t 15.125467099 -s 15 -d 9 -p DSR -e 68 -c 2 -a 0 -i 8 -k RTR 
- -t 15.125467099 -s 15 -d 9 -p DSR -e 68 -c 2 -a 0 -i 8 -k RTR
h -t 15.125467099 -s 15 -d 9 -p DSR -e 68 -c 2 -a 0 -i 8 -k RTR
+ -t 15.126405074 -s 0 -d -1 -p cbr -e 512 -c 2 -a 0 -i 14 -k AGT 
- -t 15.126405074 -s 0 -d -1 -p cbr -e 512 -c 2 -a 0 -i 14 -k AGT
h -t 15.126405074 -s 0 -d -1 -p cbr -e 512 -c 2 -a 0 -i 14 -k AGT
+ -t 15.126405074 -s 0 -d 6 -p cbr -e 556 -c 2 -a 0 -i 14 -k RTR 
- -t 15.126405074 -s 0 -d 6 -p cbr -e 556 -c 2 -a 0 -i 14 -k RTR
h -t 15.126405074 -s 0 -d 6 -p cbr -e 556 -c 2 -a 0 -i 14 -k RTR
+ -t 15.127749099 -s 9 -d 3 -p DSR -e 68 -c 2 -a 0 -i 8 -k RTR 
- -t 15.127749099 -s 9 -d 3 -p DSR -e 68 -c 2 -a 0 -i 8 -k RTR
h -t 15.127749099 -s 9 -d 3 -p DSR -e 68 -c 2 -a 0 -i 8 -k RTR
+ -t 15.134585766 -s 3 -d 0 -p DSR -e 68 -c 2 -a 0 -i 8 -k RTR 
- -t 15.134585766 -s 3 -d 0 -p DSR -e 68 -c 2 -a 0 -i 8 -k RTR
h -t 15.134585766 -s 3 -d 0 -p DSR -e 68 -c 2 -a 0 -i 8 -k RTR
+ -t 15.139013561 -s 19 -d 9 -p DSR -e 68 -c 2 -a 0 -i 7 -k RTR 
- -t 15.139013561 -s 19 -d 9 -p DSR -e 68 -c 2 -a 0 -i 7 -k RTR
h -t 15.139013561 -s 19 -d 9 -p DSR -e 68 -c 2 -a 0 -i 7 -k RTR
+ -t 15.141275797 -s 9 -d 3 -p DSR -e 68 -c 2 -a 0 -i 7 -k RTR 
- -t 15.141275797 -s 9 -d 3 -p DSR -e 68 -c 2 -a 0 -i 7 -k RTR
h -t 15.141275797 -s 9 -d 3 -p DSR -e 68 -c 2 -a 0 -i 7 -k RTR
+ -t 15.143477797 -s 3 -d 0 -p DSR -e 68 -c 2 -a 0 -i 7 -k RTR 
- -t 15.143477797 -s 3 -d 0 -p DSR -e 68 -c 2 -a 0 -i 7 -k RTR
h -t 15.143477797 -s 3 -d 0 -p DSR -e 68 -c 2 -a 0 -i 7 -k RTR
+ -t 15.154264797 -s 6 -d 12 -p cbr -e 556 -c 2 -a 0 -i 0 -k RTR 
- -t 15.154264797 -s 6 -d 12 -p cbr -e 556 -c 2 -a 0 -i 0 -k RTR
h -t 15.154264797 -s 6 -d 12 -p cbr -e 556 -c 2 -a 0 -i 0 -k RTR
+ -t 15.160471464 -s 6 -d 12 -p cbr -e 556 -c 2 -a 0 -i 3 -k RTR 
- -t 15.160471464 -s 6 -d 12 -p cbr -e 556 -c 2 -a 0 -i 3 -k RTR
h -t 15.160471464 -s 6 -d 12 -p cbr -e 556 -c 2 -a 0 -i 3 -k RTR
+ -t 15.166398130 -s 6 -d 12 -p cbr -e 556 -c 2 -a 0 -i 14 -k RTR 
- -t 15.166398130 -s 6 -d 12 -p cbr -e 556 -c 2 -a 0 -i 14 -k RTR
h -t 15.166398130 -s 6 -d 12 -p cbr -e 556 -c 2 -a 0 -i 14 -k RTR
+ -t 15.172564130 -s 12 -d 16 -p cbr -e 556 -c 2 -a 0 -i 0 -k RTR 
- -t 15.172564130 -s 12 -d 16 -p cbr -e 556 -c 2 -a 0 -i 0 -k RTR
h -t 15.172564130 -s 12 -d 16 -p cbr -e 556 -c 2 -a 0 -i 0 -k RTR
+ -t 15.178490797 -s 12 -d 16 -p cbr -e 556 -c 2 -a 0 -i 3 -k RTR 
- -t 15.178490797 -s 12 -d 16 -p cbr -e 556 -c 2 -a 0 -i 3 -k RTR
h -t 15.178490797 -s 12 -d 16 -p cbr -e 556 -c 2 -a 0 -i 3 -k RTR
+ -t 15.184617464 -s 12 -d 16 -p cbr -e 556 -c 2 -a 0 -i 14 -k RTR 
- -t 15.184617464 -s 12 -d 16 -p cbr -e 556 -c 2 -a 0 -i 14 -k RTR
h -t 15.184617464 -s 12 -d 16 -p cbr -e 556 -c 2 -a 0 -i 14 -k RTR
+ -t 15.185368880 -s 0 -d -1 -p cbr -e 512 -c 2 -a 0 -i 15 -k AGT 
- -t 15.185368880 -s 0 -d -1 -p cbr -e 512 -c 2 -a 0 -i 15 -k AGT
h -t 15.185368880 -s 0 -d -1 -p cbr -e 512 -c 2 -a 0 -i 15 -k AGT
+ -t 15.185368880 -s 0 -d 6 -p cbr -e 532 -c 2 -a 0 -i 15 -k RTR 
- -t 15.185368880 -s 0 -d 6 -p cbr -e 532 -c 2 -a 0 -i 15 -k RTR
h -t 15.185368880 -s 0 -d 6 -p cbr -e 532 -c 2 -a 0 -i 15 -k RTR
r -t 15.190883700 -s 16 -d 16 -p cbr -e 512 -c 2 -a 0 -i 0 -k AGT
r -t 15.197250681 -s 16 -d 16 -p cbr -e 512 -c 2 -a 0 -i 3 -k AGT
r -t 15.203317663 -s 16 -d 16 -p cbr -e 512 -c 2 -a 0 -i 14 -k AGT
+ -t 15.209817458 -s 6 -d 12 -p cbr -e 532 -c 2 -a 0 -i 15 -k RTR 
- -t 15.209817458 -s 6 -d 12 -p cbr -e 532 -c 2 -a 0 -i 15 -k RTR
h -t 15.209817458 -s 6 -d 12 -p cbr -e 532 -c 2 -a 0 -i 15 -k RTR
+ -t 15.216071458 -s 12 -d 16 -p cbr -e 532 -c 2 -a 0 -i 15 -k RTR 
- -t 15.216071458 -s 12 -d 16 -p cbr -e 532 -c 2 -a 0 -i 15 -k RTR
h -t 15.216071458 -s 12 -d 16 -p cbr -e 532 -c 2 -a 0 -i 15 -k RTR
r -t 15.221925694 -s 16 -d 16 -p cbr -e 512 -c 2 -a 0 -i 15 -k AGT
+ -t 15.237721789 -s 0 -d -1 -p cbr -e 512 -c 2 -a 0 -i 16 -k AGT 
- -t 15.237721789 -s 0 -d -1 -p cbr -e 512 -c 2 -a 0 -i 16 -k AGT
h -t 15.237721789 -s 0 -d -1 -p cbr -e 512 -c 2 -a 0 -i 16 -k AGT
+ -t 15.237721789 -s 0 -d 6 -p cbr -e 532 -c 2 -a 0 -i 16 -k RTR 
- -t 15.237721789 -s 0 -d 6 -p cbr -e 532 -c 2 -a 0 -i 16 -k RTR
h -t 15.237721789 -s 0 -d 6 -p cbr -e 532 -c 2 -a 0 -i 16 -k RTR
+ -t 15.243451789 -s 6 -d 12 -p cbr -e 532 -c 2 -a 0 -i 16 -k RTR 
- -t 15.243451789 -s 6 -d 12 -p cbr -e 532 -c 2 -a 0 -i 16 -k RTR
h -t 15.243451789 -s 6 -d 12 -p cbr -e 532 -c 2 -a 0 -i 16 -k RTR
+ -t 15.249565789 -s 12 -d 16 -p cbr -e 532 -c 2 -a 0 -i 16 -k RTR 
- -t 15.249565789 -s 12 -d 16 -p cbr -e 532 -c 2 -a 0 -i 16 -k RTR
h -t 15.249565789 -s 12 -d 16 -p cbr -e 532 -c 2 -a 0 -i 16 -k RTR
r -t 15.255620025 -s 16 -d 16 -p cbr -e 512 -c 2 -a 0 -i 16 -k AGT
+ -t 15.309495030 -s 0 -d -1 -p cbr -e 512 -c 2 -a 0 -i 17 -k AGT 
- -t 15.309495030 -s 0 -d -1 -p cbr -e 512 -c 2 -a 0 -i 17 -k AGT
h -t 15.309495030 -s 0 -d -1 -p cbr -e 512 -c 2 -a 0 -i 17 -k AGT
+ -t 15.309495030 -s 0 -d 6 -p cbr -e 532 -c 2 -a 0 -i 17 -k RTR 
- -t 15.309495030 -s 0 -d 6 -p cbr -e 532 -c 2 -a 0 -i 17 -k RTR
h -t 15.309495030 -s 0 -d 6 -p cbr -e 532 -c 2 -a 0 -i 17 -k RTR
+ -t 15.315345030 -s 6 -d 12 -p cbr -e 532 -c 2 -a 0 -i 17 -k RTR 
- -t 15.315345030 -s 6 -d 12 -p cbr -e 532 -c 2 -a 0 -i 17 -k RTR
h -t 15.315345030 -s 6 -d 12 -p cbr -e 532 -c 2 -a 0 -i 17 -k RTR
+ -t 15.321319030 -s 12 -d 16 -p cbr -e 532 -c 2 -a 0 -i 17 -k RTR 
- -t 15.321319030 -s 12 -d 16 -p cbr -e 532 -c 2 -a 0 -i 17 -k RTR
h -t 15.321319030 -s 12 -d 16 -p cbr -e 532 -c 2 -a 0 -i 17 -k RTR
r -t 15.327273266 -s 16 -d 16 -p cbr -e 512 -c 2 -a 0 -i 17 -k AGT
+ -t 15.370039569 -s 0 -d -1 -p cbr -e 512 -c 2 -a 0 -i 18 -k AGT 
- -t 15.370039569 -s 0 -d -1 -p cbr -e 512 -c 2 -a 0 -i 18 -k AGT
h -t 15.370039569 -s 0 -d -1 -p cbr -e 512 -c 2 -a 0 -i 18 -k AGT
+ -t 15.370039569 -s 0 -d 6 -p cbr -e 532 -c 2 -a 0 -i 18 -k RTR 
- -t 15.370039569 -s 0 -d 6 -p cbr -e 532 -c 2 -a 0 -i 18 -k RTR
h -t 15.370039569 -s 0 -d 6 -p cbr -e 532 -c 2 -a 0 -i 18 -k RTR
+ -t 15.375829569 -s 6 -d 12 -p cbr -e 532 -c 2 -a 0 -i 18 -k RTR 
- -t 15.375829569 -s 6 -d 12 -p cbr -e 532 -c 2 -a 0 -i 18 -k RTR
h -t 15.375829569 -s 6 -d 12 -p cbr -e 532 -c 2 -a 0 -i 18 -k RTR
+ -t 15.381983569 -s 12 -d 16 -p cbr -e 532 -c 2 -a 0 -i 18 -k RTR 
- -t 15.381983569 -s 12 -d 16 -p cbr -e 532 -c 2 -a 0 -i 18 -k RTR
h -t 15.381983569 -s 12 -d 16 -p cbr -e 532 -c 2 -a 0 -i 18 -k RTR
r -t 15.387997805 -s 16 -d 16 -p cbr -e 512 -c 2 -a 0 -i 18 -k AGT
+ -t 15.433067414 -s 0 -d -1 -p cbr -e 512 -c 2 -a 0 -i 19 -k AGT 
- -t 15.433067414 -s 0 -d -1 -p cbr -e 512 -c 2 -a 0 -i 19 -k AGT
h -t 15.433067414 -s 0 -d -1 -p cbr -e 512 -c 2 -a 0 -i 19 -k AGT
+ -t 15.433067414 -s 0 -d 6 -p cbr -e 532 -c 2 -a 0 -i 19 -k RTR 
- -t 15.433067414 -s 0 -d 6 -p cbr -e 532 -c 2 -a 0 -i 19 -k RTR
h -t 15.433067414 -s 0 -d 6 -p cbr -e 532 -c 2 -a 0 -i 19 -k RTR
+ -t 15.438737414 -s 6 -d 12 -p cbr -e 532 -c 2 -a 0 -i 19 -k RTR 
- -t 15.438737414 -s 6 -d 12 -p cbr -e 532 -c 2 -a 0 -i 19 -k RTR
h -t 15.438737414 -s 6 -d 12 -p cbr -e 532 -c 2 -a 0 -i 19 -k RTR
+ -t 15.444871414 -s 12 -d 16 -p cbr -e 532 -c 2 -a 0 -i 19 -k RTR 
- -t 15.444871414 -s 12 -d 16 -p cbr -e 532 -c 2 -a 0 -i 19 -k RTR
h -t 15.444871414 -s 12 -d 16 -p cbr -e 532 -c 2 -a 0 -i 19 -k RTR
r -t 15.450925650 -s 16 -d 16 -p cbr -e 512 -c 2 -a 0 -i 19 -k AGT
+ -t 15.496402906 -s 0 -d -1 -p cbr -e 512 -c 2 -a 0 -i 20 -k AGT 
- -t 15.496402906 -s 0 -d -1 -p cbr -e 512 -c 2 -a 0 -i 20 -k AGT
h -t 15.496402906 -s 0 -d -1 -p cbr -e 512 -c 2 -a 0 -i 20 -k AGT
+ -t 15.496402906 -s 0 -d 6 -p cbr -e 532 -c 2 -a 0 -i 20 -k RTR 
- -t 15.496402906 -s 0 -d 6 -p cbr -e 532 -c 2 -a 0 -i 20 -k RTR
h -t 15.496402906 -s 0 -d 6 -p cbr -e 532 -c 2 -a 0 -i 20 -k RTR
+ -t 15.502332906 -s 6 -d 12 -p cbr -e 532 -c 2 -a 0 -i 20 -k RTR 
- -t 15.502332906 -s 6 -d 12 -p cbr -e 532 -c 2 -a 0 -i 20 -k RTR
h -t 15.502332906 -s 6 -d 12 -p cbr -e 532 -c 2 -a 0 -i 20 -k RTR
+ -t 15.508446906 -s 12 -d 16 -p cbr -e 532 -c 2 -a 0 -i 20 -k RTR 
- -t 15.508446906 -s 12 -d 16 -p cbr -e 532 -c 2 -a 0 -i 20 -k RTR
h -t 15.508446906 -s 12 -d 16 -p cbr -e 532 -c 2 -a 0 -i 20 -k RTR
r -t 15.514481142 -s 16 -d 16 -p cbr -e 512 -c 2 -a 0 -i 20 -k AGT
+ -t 15.570475464 -s 0 -d -1 -p cbr -e 512 -c 2 -a 0 -i 21 -k AGT 
- -t 15.570475464 -s 0 -d -1 -p cbr -e 512 -c 2 -a 0 -i 21 -k AGT
h -t 15.570475464 -s 0 -d -1 -p cbr -e 512 -c 2 -a 0 -i 21 -k AGT
+ -t 15.570475464 -s 0 -d 6 -p cbr -e 532 -c 2 -a 0 -i 21 -k RTR 
- -t 15.570475464 -s 0 -d 6 -p cbr -e 532 -c 2 -a 0 -i 21 -k RTR
h -t 15.570475464 -s 0 -d 6 -p cbr -e 532 -c 2 -a 0 -i 21 -k RTR
+ -t 15.576005464 -s 6 -d 12 -p cbr -e 532 -c 2 -a 0 -i 21 -k RTR 
- -t 15.576005464 -s 6 -d 12 -p cbr -e 532 -c 2 -a 0 -i 21 -k RTR
h -t 15.576005464 -s 6 -d 12 -p cbr -e 532 -c 2 -a 0 -i 21 -k RTR
+ -t 15.581819464 -s 12 -d 16 -p cbr -e 532 -c 2 -a 0 -i 21 -k RTR 
- -t 15.581819464 -s 12 -d 16 -p cbr -e 532 -c 2 -a 0 -i 21 -k RTR
h -t 15.581819464 -s 12 -d 16 -p cbr -e 532 -c 2 -a 0 -i 21 -k RTR
r -t 15.587673700 -s 16 -d 16 -p cbr -e 512 -c 2 -a 0 -i 21 -k AGT
+ -t 15.611154461 -s 0 -d -1 -p cbr -e 512 -c 2 -a 0 -i 22 -k AGT 
- -t 15.611154461 -s 0 -d -1 -p cbr -e 512 -c 2 -a 0 -i 22 -k AGT
h -t 15.611154461 -s 0 -d -1 -p cbr -e 512 -c 2 -a 0 -i 22 -k AGT
+ -t 15.611154461 -s 0 -d 6 -p cbr -e 532 -c 2 -a 0 -i 22 -k RTR 
- -t 15.611154461 -s 0 -d 6 -p cbr -e 532 -c 2 -a 0 -i 22 -k RTR
h -t 15.611154461 -s 0 -d 6 -p cbr -e 532 -c 2 -a 0 -i 22 -k RTR
+ -t 15.617184461 -s 6 -d 12 -p cbr -e 532 -c 2 -a 0 -i 22 -k RTR 
- -t 15.617184461 -s 6 -d 12 -p cbr -e 532 -c 2 -a 0 -i 22 -k RTR
h -t 15.617184461 -s 6 -d 12 -p cbr -e 532 -c 2 -a 0 -i 22 -k RTR
+ -t 15.623118461 -s 12 -d 16 -p cbr -e 532 -c 2 -a 0 -i 22 -k RTR 
- -t 15.623118461 -s 12 -d 16 -p cbr -e 532 -c 2 -a 0 -i 22 -k RTR
h -t 15.623118461 -s 12 -d 16 -p cbr -e 532 -c 2 -a 0 -i 22 -k RTR
r -t 15.628832697 -s 16 -d 16 -p cbr -e 512 -c 2 -a 0 -i 22 -k AGT
+ -t 15.650851039 -s 0 -d -1 -p cbr -e 512 -c 2 -a 0 -i 23 -k AGT 
- -t 15.650851039 -s 0 -d -1 -p cbr -e 512 -c 2 -a 0 -i 23 -k AGT
h -t 15.650851039 -s 0 -d -1 -p cbr -e 512 -c 2 -a 0 -i 23 -k AGT
+ -t 15.650851039 -s 0 -d 6 -p cbr -e 532 -c 2 -a 0 -i 23 -k RTR 
- -t 15.650851039 -s 0 -d 6 -p cbr -e 532 -c 2 -a 0 -i 23 -k RTR
h -t 15.650851039 -s 0 -d 6 -p cbr -e 532 -c 2 -a 0 -i 23 -k RTR
+ -t 15.656761039 -s 6 -d 12 -p cbr -e 532 -c 2 -a 0 -i 23 -k RTR 
- -t 15.656761039 -s 6 -d 12 -p cbr -e 532 -c 2 -a 0 -i 23 -k RTR
h -t 15.656761039 -s 6 -d 12 -p cbr -e 532 -c 2 -a 0 -i 23 -k RTR
+ -t 15.662655039 -s 12 -d 16 -p cbr -e 532 -c 2 -a 0 -i 23 -k RTR 
- -t 15.662655039 -s 12 -d 16 -p cbr -e 532 -c 2 -a 0 -i 23 -k RTR
h -t 15.662655039 -s 12 -d 16 -p cbr -e 532 -c 2 -a 0 -i 23 -k RTR
r -t 15.668669275 -s 16 -d 16 -p cbr -e 512 -c 2 -a 0 -i 23 -k AGT
+ -t 15.707481592 -s 0 -d -1 -p cbr -e 512 -c 2 -a 0 -i 24 -k AGT 
- -t 15.707481592 -s 0 -d -1 -p cbr -e 512 -c 2 -a 0 -i 24 -k AGT
h -t 15.707481592 -s 0 -d -1 -p cbr -e 512 -c 2 -a 0 -i 24 -k AGT
+ -t 15.707481592 -s 0 -d 6 -p cbr -e 532 -c 2 -a 0 -i 24 -k RTR 
- -t 15.707481592 -s 0 -d 6 -p cbr -e 532 -c 2 -a 0 -i 24 -k RTR
h -t 15.707481592 -s 0 -d 6 -p cbr -e 532 -c 2 -a 0 -i 24 -k RTR
+ -t 15.713471592 -s 6 -d 12 -p cbr -e 532 -c 2 -a 0 -i 24 -k RTR 
- -t 15.713471592 -s 6 -d 12 -p cbr -e 532 -c 2 -a 0 -i 24 -k RTR
h -t 15.713471592 -s 6 -d 12 -p cbr -e 532 -c 2 -a 0 -i 24 -k RTR
+ -t 15.719685592 -s 12 -d 16 -p cbr -e 532 -c 2 -a 0 -i 24 -k RTR 
- -t 15.719685592 -s 12 -d 16 -p cbr -e 532 -c 2 -a 0 -i 24 -k RTR
h -t 15.719685592 -s 12 -d 16 -p cbr -e 532 -c 2 -a 0 -i 24 -k RTR
r -t 15.725659828 -s 16 -d 16 -p cbr -e 512 -c 2 -a 0 -i 24 -k AGT
+ -t 15.773008419 -s 0 -d -1 -p cbr -e 512 -c 2 -a 0 -i 25 -k AGT 
- -t 15.773008419 -s 0 -d -1 -p cbr -e 512 -c 2 -a 0 -i 25 -k AGT
h -t 15.773008419 -s 0 -d -1 -p cbr -e 512 -c 2 -a 0 -i 25 -k AGT
+ -t 15.773008419 -s 0 -d 6 -p cbr -e 532 -c 2 -a 0 -i 25 -k RTR 
- -t 15.773008419 -s 0 -d 6 -p cbr -e 532 -c 2 -a 0 -i 25 -k RTR
h -t 15.773008419 -s 0 -d 6 -p cbr -e 532 -c 2 -a 0 -i 25 -k RTR
+ -t 15.778758419 -s 6 -d 12 -p cbr -e 532 -c 2 -a 0 -i 25 -k RTR 
- -t 15.778758419 -s 6 -d 12 -p cbr -e 532 -c 2 -a 0 -i 25 -k RTR
h -t 15.778758419 -s 6 -d 12 -p cbr -e 532 -c 2 -a 0 -i 25 -k RTR
+ -t 15.784532419 -s 12 -d 16 -p cbr -e 532 -c 2 -a 0 -i 25 -k RTR 
- -t 15.784532419 -s 12 -d 16 -p cbr -e 532 -c 2 -a 0 -i 25 -k RTR
h -t 15.784532419 -s 12 -d 16 -p cbr -e 532 -c 2 -a 0 -i 25 -k RTR
r -t 15.790766655 -s 16 -d 16 -p cbr -e 512 -c 2 -a 0 -i 25 -k AGT
+ -t 15.820941151 -s 0 -d -1 -p cbr -e 512 -c 2 -a 0 -i 26 -k AGT 
- -t 15.820941151 -s 0 -d -1 -p cbr -e 512 -c 2 -a 0 -i 26 -k AGT
h -t 15.820941151 -s 0 -d -1 -p cbr -e 512 -c 2 -a 0 -i 26 -k AGT
+ -t 15.820941151 -s 0 -d 6 -p cbr -e 532 -c 2 -a 0 -i 26 -k RTR 
- -t 15.820941151 -s 0 -d 6 -p cbr -e 532 -c 2 -a 0 -i 26 -k RTR
h -t 15.820941151 -s 0 -d 6 -p cbr -e 532 -c 2 -a 0 -i 26 -k RTR
+ -t 15.826391151 -s 6 -d 12 -p cbr -e 532 -c 2 -a 0 -i 26 -k RTR 
- -t 15.826391151 -s 6 -d 12 -p cbr -e 532 -c 2 -a 0 -i 26 -k RTR
h -t 15.826391151 -s 6 -d 12 -p cbr -e 532 -c 2 -a 0 -i 26 -k RTR
+ -t 15.832425151 -s 12 -d 16 -p cbr -e 532 -c 2 -a 0 -i 26 -k RTR 
- -t 15.832425151 -s 12 -d 16 -p cbr -e 532 -c 2 -a 0 -i 26 -k RTR
h -t 15.832425151 -s 12 -d 16 -p cbr -e 532 -c 2 -a 0 -i 26 -k RTR
r -t 15.838719387 -s 16 -d 16 -p cbr -e 512 -c 2 -a 0 -i 26 -k AGT
+ -t 15.893136465 -s 0 -d -1 -p cbr -e 512 -c 2 -a 0 -i 27 -k AGT 
- -t 15.893136465 -s 0 -d -1 -p cbr -e 512 -c 2 -a 0 -i 27 -k AGT
h -t 15.893136465 -s 0 -d -1 -p cbr -e 512 -c 2 -a 0 -i 27 -k AGT
+ -t 15.893136465 -s 0 -d 6 -p cbr -e 532 -c 2 -a 0 -i 27 -k RTR 
- -t 15.893136465 -s 0 -d 6 -p cbr -e 532 -c 2 -a 0 -i 27 -k RTR
h -t 15.893136465 -s 0 -d 6 -p cbr -e 532 -c 2 -a 0 -i 27 -k RTR
+ -t 15.898646465 -s 6 -d 12 -p cbr -e 532 -c 2 -a 0 -i 27 -k RTR 
- -t 15.898646465 -s 6 -d 12 -p cbr -e 532 -c 2 -a 0 -i 27 -k RTR
h -t 15.898646465 -s 6 -d 12 -p cbr -e 532 -c 2 -a 0 -i 27 -k RTR
+ -t 15.904800465 -s 12 -d 16 -p cbr -e 532 -c 2 -a 0 -i 27 -k RTR 
- -t 15.904800465 -s 12 -d 16 -p cbr -e 532 -c 2 -a 0 -i 27 -k RTR
h -t 15.904800465 -s 12 -d 16 -p cbr -e 532 -c 2 -a 0 -i 27 -k RTR
r -t 15.910754701 -s 16 -d 16 -p cbr -e 512 -c 2 -a 0 -i 27 -k AGT
+ -t 15.929137728 -s 0 -d -1 -p cbr -e 512 -c 2 -a 0 -i 28 -k AGT 
- -t 15.929137728 -s 0 -d -1 -p cbr -e 512 -c 2 -a 0 -i 28 -k AGT
h -t 15.929137728 -s 0 -d -1 -p cbr -e 512 -c 2 -a 0 -i 28 -k AGT
+ -t 15.929137728 -s 0 -d 6 -p cbr -e 532 -c 2 -a 0 -i 28 -k RTR 
- -t 15.929137728 -s 0 -d 6 -p cbr -e 532 -c 2 -a 0 -i 28 -k RTR
h -t 15.929137728 -s 0 -d 6 -p cbr -e 532 -c 2 -a 0 -i 28 -k RTR
+ -t 15.934987728 -s 6 -d 12 -p cbr -e 532 -c 2 -a 0 -i 28 -k RTR 
- -t 15.934987728 -s 6 -d 12 -p cbr -e 532 -c 2 -a 0 -i 28 -k RTR
h -t 15.934987728 -s 6 -d 12 -p cbr -e 532 -c 2 -a 0 -i 28 -k RTR
+ -t 15.941281728 -s 12 -d 16 -p cbr -e 532 -c 2 -a 0 -i 28 -k RTR 
- -t 15.941281728 -s 12 -d 16 -p cbr -e 532 -c 2 -a 0 -i 28 -k RTR
h -t 15.941281728 -s 12 -d 16 -p cbr -e 532 -c 2 -a 0 -i 28 -k RTR
r -t 15.947515964 -s 16 -d 16 -p cbr -e 512 -c 2 -a 0 -i 28 -k AGT
+ -t 15.960644012 -s 0 -d -1 -p cbr -e 512 -c 2 -a 0 -i 29 -k AGT 
- -t 15.960644012 -s 0 -d -1 -p cbr -e 512 -c 2 -a 0 -i 29 -k AGT
h -t 15.960644012 -s 0 -d -1 -p cbr -e 512 -c 2 -a 0 -i 29 -k AGT
+ -t 15.960644012 -s 0 -d 6 -p cbr -e 532 -c 2 -a 0 -i 29 -k RTR 
- -t 15.960644012 -s 0 -d 6 -p cbr -e 532 -c 2 -a 0 -i 29 -k RTR
h -t 15.960644012 -s 0 -d 6 -p cbr -e 532 -c 2 -a 0 -i 29 -k RTR
+ -t 15.966094012 -s 6 -d 12 -p cbr -e 532 -c 2 -a 0 -i 29 -k RTR 
- -t 15.966094012 -s 6 -d 12 -p cbr -e 532 -c 2 -a 0 -i 29 -k RTR
h -t 15.966094012 -s 6 -d 12 -p cbr -e 532 -c 2 -a 0 -i 29 -k RTR
+ -t 15.971968012 -s 12 -d 16 -p cbr -e 532 -c 2 -a 0 -i 29 -k RTR 
- -t 15.971968012 -s 12 -d 16 -p cbr -e 532 -c 2 -a 0 -i 29 -k RTR
h -t 15.971968012 -s 12 -d 16 -p cbr -e 532 -c 2 -a 0 -i 29 -k RTR
r -t 15.978162248 -s 16 -d 16 -p cbr -e 512 -c 2 -a 0 -i 29 -k AGT
+ -t 16.033820280 -s 0 -d -1 -p cbr -e 512 -c 2 -a 0 -i 30 -k AGT 
- -t 16.033820280 -s 0 -d -1 -p cbr -e 512 -c 2 -a 0 -i 30 -k AGT
h -t 16.033820280 -s 0 -d -1 -p cbr -e 512 -c 2 -a 0 -i 30 -k AGT
+ -t 16.033820280 -s 0 -d 6 -p cbr -e 532 -c 2 -a 0 -i 30 -k RTR 
- -t 16.033820280 -s 0 -d 6 -p cbr -e 532 -c 2 -a 0 -i 30 -k RTR
h -t 16.033820280 -s 0 -d 6 -p cbr -e 532 -c 2 -a 0 -i 30 -k RTR
+ -t 16.039770280 -s 6 -d 12 -p cbr -e 532 -c 2 -a 0 -i 30 -k RTR 
- -t 16.039770280 -s 6 -d 12 -p cbr -e 532 -c 2 -a 0 -i 30 -k RTR
h -t 16.039770280 -s 6 -d 12 -p cbr -e 532 -c 2 -a 0 -i 30 -k RTR
+ -t 16.045644280 -s 12 -d 16 -p cbr -e 532 -c 2 -a 0 -i 30 -k RTR 
- -t 16.045644280 -s 12 -d 16 -p cbr -e 532 -c 2 -a 0 -i 30 -k RTR
h -t 16.045644280 -s 12 -d 16 -p cbr -e 532 -c 2 -a 0 -i 30 -k RTR
r -t 16.051778516 -s 16 -d 16 -p cbr -e 512 -c 2 -a 0 -i 30 -k AGT
+ -t 16.095874219 -s 0 -d -1 -p cbr -e 512 -c 2 -a 0 -i 31 -k AGT 
- -t 16.095874219 -s 0 -d -1 -p cbr -e 512 -c 2 -a 0 -i 31 -k AGT
h -t 16.095874219 -s 0 -d -1 -p cbr -e 512 -c 2 -a 0 -i 31 -k AGT
+ -t 16.095874219 -s 0 -d 6 -p cbr -e 532 -c 2 -a 0 -i 31 -k RTR 
- -t 16.095874219 -s 0 -d 6 -p cbr -e 532 -c 2 -a 0 -i 31 -k RTR
h -t 16.095874219 -s 0 -d 6 -p cbr -e 532 -c 2 -a 0 -i 31 -k RTR
+ -t 16.101904219 -s 6 -d 12 -p cbr -e 532 -c 2 -a 0 -i 31 -k RTR 
- -t 16.101904219 -s 6 -d 12 -p cbr -e 532 -c 2 -a 0 -i 31 -k RTR
h -t 16.101904219 -s 6 -d 12 -p cbr -e 532 -c 2 -a 0 -i 31 -k RTR
+ -t 16.107898219 -s 12 -d 16 -p cbr -e 532 -c 2 -a 0 -i 31 -k RTR 
- -t 16.107898219 -s 12 -d 16 -p cbr -e 532 -c 2 -a 0 -i 31 -k RTR
h -t 16.107898219 -s 12 -d 16 -p cbr -e 532 -c 2 -a 0 -i 31 -k RTR
r -t 16.113812455 -s 16 -d 16 -p cbr -e 512 -c 2 -a 0 -i 31 -k AGT
+ -t 16.137411850 -s 0 -d -1 -p cbr -e 512 -c 2 -a 0 -i 32 -k AGT 
- -t 16.137411850 -s 0 -d -1 -p cbr -e 512 -c 2 -a 0 -i 32 -k AGT
h -t 16.137411850 -s 0 -d -1 -p cbr -e 512 -c 2 -a 0 -i 32 -k AGT
+ -t 16.137411850 -s 0 -d 6 -p cbr -e 532 -c 2 -a 0 -i 32 -k RTR 
- -t 16.137411850 -s 0 -d 6 -p cbr -e 532 -c 2 -a 0 -i 32 -k RTR
h -t 16.137411850 -s 0 -d 6 -p cbr -e 532 -c 2 -a 0 -i 32 -k RTR
+ -t 16.143081850 -s 6 -d 12 -p cbr -e 532 -c 2 -a 0 -i 32 -k RTR 
- -t 16.143081850 -s 6 -d 12 -p cbr -e 532 -c 2 -a 0 -i 32 -k RTR
h -t 16.143081850 -s 6 -d 12 -p cbr -e 532 -c 2 -a 0 -i 32 -k RTR
+ -t 16.148975850 -s 12 -d 16 -p cbr -e 532 -c 2 -a 0 -i 32 -k RTR 
- -t 16.148975850 -s 12 -d 16 -p cbr -e 532 -c 2 -a 0 -i 32 -k RTR
h -t 16.148975850 -s 12 -d 16 -p cbr -e 532 -c 2 -a 0 -i 32 -k RTR
r -t 16.155170086 -s 16 -d 16 -p cbr -e 512 -c 2 -a 0 -i 32 -k AGT
+ -t 16.208032945 -s 0 -d -1 -p cbr -e 512 -c 2 -a 0 -i 33 -k AGT 
- -t 16.208032945 -s 0 -d -1 -p cbr -e 512 -c 2 -a 0 -i 33 -k AGT
h -t 16.208032945 -s 0 -d -1 -p cbr -e 512 -c 2 -a 0 -i 33 -k AGT