Sconfig 0.00000 tap: on snoop: rts? on errs? on
Sconfig 0.00000 salvage: on !bd replies? on
Sconfig 0.00000 grat error: on grat reply: on
Sconfig 0.00000 $reply for props: on ring 0 search: on
Sconfig 0.00000 using MOBICACHE
s 15.000000000 _0_ AGT  --- 0 cbr 512 [0 0 0 0] ------- [0:0 18:0 32 0] [0] 0 0
r 15.000000000 _0_ RTR  --- 0 cbr 512 [0 0 0 0] ------- [0:0 18:0 32 0] [0] 0 0
s 15.000000000 _3_ AGT  --- 2 cbr 512 [0 0 0 0] ------- [3:0 18:1 32 0] [0] 0 0
r 15.000000000 _3_ RTR  --- 2 cbr 512 [0 0 0 0] ------- [3:0 18:1 32 0] [0] 0 0
s 15.000000000 _7_ AGT  --- 4 cbr 512 [0 0 0 0] ------- [7:0 11:0 32 0] [0] 0 0
r 15.000000000 _7_ RTR  --- 4 cbr 512 [0 0 0 0] ------- [7:0 11:0 32 0] [0] 0 0
s 15.000940664 _3_ RTR  --- 3 DSR 32 [0 0 0 0] ------- [3:255 18:255 32 0] 1 [1 1] [0 1 0 0->0] [0 0 0 0->0]
s 15.001315927 _0_ RTR  --- 1 DSR 32 [0 0 0 0] ------- [0:255 18:255 32 0] 1 [1 1] [0 1 0 0->0] [0 0 0 0->0]
r 15.001772998 _0_ RTR  --- 3 DSR 32 [0 ffffffff 3 800] ------- [3:255 18:255 32 0] 1 [1 1] [0 1 0 0->0] [0 0 0 0->0]
r 15.001772998 _6_ RTR  --- 3 DSR 32 [0 ffffffff 3 800] ------- [3:255 18:255 32 0] 1 [1 1] [0 1 0 0->0] [0 0 0 0->0]
r 15.001773331 _9_ RTR  --- 3 DSR 32 [0 ffffffff 3 800] ------- [3:255 18:255 32 0] 1 [1 1] [0 1 0 0->0] [0 0 0 0->0]
r 15.001773331 _4_ RTR  --- 3 DSR 32 [0 ffffffff 3 800] ------- [3:255 18:255 32 0] 1 [1 1] [0 1 0 0->0] [0 0 0 0->0]
r 15.001773410 _1_ RTR  --- 3 DSR 32 [0 ffffffff 3 800] ------- [3:255 18:255 32 0] 1 [1 1] [0 1 0 0->0] [0 0 0 0->0]
r 15.001773410 _7_ RTR  --- 3 DSR 32 [0 ffffffff 3 800] ------- [3:255 18:255 32 0] 1 [1 1] [0 1 0 0->0] [0 0 0 0->0]
r 15.003035331 _3_ RTR  --- 1 DSR 32 [0 ffffffff 0 800] ------- [0:255 18:255 32 0] 1 [1 1] [0 1 0 0->0] [0 0 0 0->0]
r 15.003035664 _6_ RTR  --- 1 DSR 32 [0 ffffffff 0 800] ------- [0:255 18:255 32 0] 1 [1 1] [0 1 0 0->0] [0 0 0 0->0]
r 15.003035664 _1_ RTR  --- 1 DSR 32 [0 ffffffff 0 800] ------- [0:255 18:255 32 0] 1 [1 1] [0 1 0 0->0] [0 0 0 0->0]
r 15.003035743 _4_ RTR  --- 1 DSR 32 [0 ffffffff 0 800] ------- [0:255 18:255 32 0] 1 [1 1] [0 1 0 0->0] [0 0 0 0->0]
s 15.007013462 _7_ RTR  --- 5 DSR 32 [0 0 0 0] ------- [7:255 11:255 32 0] 1 [1 1] [0 1 0 0->0] [0 0 0 0->0]
r 15.008065795 _4_ RTR  --- 5 DSR 32 [0 ffffffff 7 800] ------- [7:255 11:255 32 0] 1 [1 1] [0 1 0 0->0] [0 0 0 0->0]
r 15.008065795 _10_ RTR  --- 5 DSR 32 [0 ffffffff 7 800] ------- [7:255 11:255 32 0] 1 [1 1] [0 1 0 0->0] [0 0 0 0->0]
r 15.008065933 _22_ RTR  --- 5 DSR 32 [0 ffffffff 7 800] ------- [7:255 11:255 32 0] 1 [1 1] [0 1 0 0->0] [0 0 0 0->0]
r 15.008066129 _1_ RTR  --- 5 DSR 32 [0 ffffffff 7 800] ------- [7:255 11:255 32 0] 1 [1 1] [0 1 0 0->0] [0 0 0 0->0]
r 15.008066129 _6_ RTR  --- 5 DSR 32 [0 ffffffff 7 800] ------- [7:255 11:255 32 0] 1 [1 1] [0 1 0 0->0] [0 0 0 0->0]
r 15.008066129 _13_ RTR  --- 5 DSR 32 [0 ffffffff 7 800] ------- [7:255 11:255 32 0] 1 [1 1] [0 1 0 0->0] [0 0 0 0->0]
r 15.008066129 _8_ RTR  --- 5 DSR 32 [0 ffffffff 7 800] ------- [7:255 11:255 32 0] 1 [1 1] [0 1 0 0->0] [0 0 0 0->0]
r 15.008066207 _21_ RTR  --- 5 DSR 32 [0 ffffffff 7 800] ------- [7:255 11:255 32 0] 1 [1 1] [0 1 0 0->0] [0 0 0 0->0]
r 15.008066207 _9_ RTR  --- 5 DSR 32 [0 ffffffff 7 800] ------- [7:255 11:255 32 0] 1 [1 1] [0 1 0 0->0] [0 0 0 0->0]
r 15.008066207 _3_ RTR  --- 5 DSR 32 [0 ffffffff 7 800] ------- [7:255 11:255 32 0] 1 [1 1] [0 1 0 0->0] [0 0 0 0->0]
r 15.008066207 _20_ RTR  --- 5 DSR 32 [0 ffffffff 7 800] ------- [7:255 11:255 32 0] 1 [1 1] [0 1 0 0->0] [0 0 0 0->0]
r 15.008066207 _5_ RTR  --- 5 DSR 32 [0 ffffffff 7 800] ------- [7:255 11:255 32 0] 1 [1 1] [0 1 0 0->0] [0 0 0 0->0]
r 15.008066207 _11_ RTR  --- 5 DSR 32 [0 ffffffff 7 800] ------- [7:255 11:255 32 0] 1 [1 1] [0 1 0 0->0] [0 0 0 0->0]
s 15.008632996 _11_ RTR  --- 6 DSR 44 [0 0 0 0] ------- [11:255 7:255 254 7] 2 [0 1] [1 1 2 7->11] [0 0 0 0->0]
r 15.010339232 _7_ RTR  --- 6 DSR 44 [13a 7 b 800] ------- [11:255 7:255 254 7] 2 [0 1] [1 1 2 7->11] [0 0 0 0->0]
SFESTs 15.010339232 _7_ 4 [7 -> 11] 1(1) to 11 [7 |11 ]
s 15.010339232 _7_ RTR  --- 4 cbr 548 [0 0 0 0] ------- [7:0 11:0 32 11] [0] 0 0
r 15.016341468 _11_ RTR  --- 4 cbr 548 [13a b 7 800] ------- [7:0 11:0 32 11] [0] 1 0
r 15.016341468 _11_ AGT  --- 4 cbr 512 [13a b 7 800] ------- [7:0 11:0 32 11] [0] 1 0
s 15.052887298 _0_ RTR  --- 9 DSR 32 [0 0 0 0] ------- [0:255 18:255 32 0] 1 [1 2] [0 2 0 0->16] [0 0 0 0->0]
r 15.054239632 _3_ RTR  --- 9 DSR 32 [0 ffffffff 0 800] ------- [0:255 18:255 32 0] 1 [1 2] [0 2 0 0->16] [0 0 0 0->0]
r 15.054239965 _6_ RTR  --- 9 DSR 32 [0 ffffffff 0 800] ------- [0:255 18:255 32 0] 1 [1 2] [0 2 0 0->16] [0 0 0 0->0]
r 15.054239965 _1_ RTR  --- 9 DSR 32 [0 ffffffff 0 800] ------- [0:255 18:255 32 0] 1 [1 2] [0 2 0 0->16] [0 0 0 0->0]
r 15.054240044 _4_ RTR  --- 9 DSR 32 [0 ffffffff 0 800] ------- [0:255 18:255 32 0] 1 [1 2] [0 2 0 0->16] [0 0 0 0->0]
f 15.056855066 _3_ RTR  --- 9 DSR 48 [0 ffffffff 0 800] ------- [0:255 18:255 32 0] 2 [1 2] [0 2 0 0->16] [0 0 0 0->0]
r 15.057935399 _0_ RTR  --- 9 DSR 48 [0 ffffffff 3 800] ------- [0:255 18:255 32 0] 2 [1 2] [0 2 0 0->16] [0 0 0 0->0]
r 15.057935399 _6_ RTR  --- 9 DSR 48 [0 ffffffff 3 800] ------- [0:255 18:255 32 0] 2 [1 2] [0 2 0 0->16] [0 0 0 0->0]
r 15.057935732 _9_ RTR  --- 9 DSR 48 [0 ffffffff 3 800] ------- [0:255 18:255 32 0] 2 [1 2] [0 2 0 0->16] [0 0 0 0->0]
r 15.057935732 _4_ RTR  --- 9 DSR 48 [0 ffffffff 3 800] ------- [0:255 18:255 32 0] 2 [1 2] [0 2 0 0->16] [0 0 0 0->0]
r 15.057935811 _1_ RTR  --- 9 DSR 48 [0 ffffffff 3 800] ------- [0:255 18:255 32 0] 2 [1 2] [0 2 0 0->16] [0 0 0 0->0]
r 15.057935811 _7_ RTR  --- 9 DSR 48 [0 ffffffff 3 800] ------- [0:255 18:255 32 0] 2 [1 2] [0 2 0 0->16] [0 0 0 0->0]
f 15.061549768 _4_ RTR  --- 9 DSR 48 [0 ffffffff 0 800] ------- [0:255 18:255 32 0] 2 [1 2] [0 2 0 0->16] [0 0 0 0->0]
f 15.061907063 _1_ RTR  --- 9 DSR 48 [0 ffffffff 0 800] ------- [0:255 18:255 32 0] 2 [1 2] [0 2 0 0->16] [0 0 0 0->0]
f 15.061941352 _6_ RTR  --- 9 DSR 48 [0 ffffffff 0 800] ------- [0:255 18:255 32 0] 2 [1 2] [0 2 0 0->16] [0 0 0 0->0]
f 15.062129402 _9_ RTR  --- 9 DSR 68 [0 ffffffff 3 800] ------- [0:255 18:255 32 0] 3 [1 2] [0 2 0 0->16] [0 0 0 0->0]
r 15.062790102 _1_ RTR  --- 9 DSR 48 [0 ffffffff 4 800] ------- [0:255 18:255 32 0] 2 [1 2] [0 2 0 0->16] [0 0 0 0->0]
r 15.062790102 _7_ RTR  --- 9 DSR 48 [0 ffffffff 4 800] ------- [0:255 18:255 32 0] 2 [1 2] [0 2 0 0->16] [0 0 0 0->0]
r 15.062790435 _3_ RTR  --- 9 DSR 48 [0 ffffffff 4 800] ------- [0:255 18:255 32 0] 2 [1 2] [0 2 0 0->16] [0 0 0 0->0]
r 15.062790435 _10_ RTR  --- 9 DSR 48 [0 ffffffff 4 800] ------- [0:255 18:255 32 0] 2 [1 2] [0 2 0 0->16] [0 0 0 0->0]
r 15.062790435 _5_ RTR  --- 9 DSR 48 [0 ffffffff 4 800] ------- [0:255 18:255 32 0] 2 [1 2] [0 2 0 0->16] [0 0 0 0->0]
r 15.062790514 _6_ RTR  --- 9 DSR 48 [0 ffffffff 4 800] ------- [0:255 18:255 32 0] 2 [1 2] [0 2 0 0->16] [0 0 0 0->0]
r 15.062790514 _0_ RTR  --- 9 DSR 48 [0 ffffffff 4 800] ------- [0:255 18:255 32 0] 2 [1 2] [0 2 0 0->16] [0 0 0 0->0]
r 15.062790514 _22_ RTR  --- 9 DSR 48 [0 ffffffff 4 800] ------- [0:255 18:255 32 0] 2 [1 2] [0 2 0 0->16] [0 0 0 0->0]
r 15.062790514 _2_ RTR  --- 9 DSR 48 [0 ffffffff 4 800] ------- [0:255 18:255 32 0] 2 [1 2] [0 2 0 0->16] [0 0 0 0->0]
r 15.062790514 _8_ RTR  --- 9 DSR 48 [0 ffffffff 4 800] ------- [0:255 18:255 32 0] 2 [1 2] [0 2 0 0->16] [0 0 0 0->0]
f 15.063106764 _10_ RTR  --- 9 DSR 68 [0 ffffffff 4 800] ------- [0:255 18:255 32 0] 3 [1 2] [0 2 0 0->16] [0 0 0 0->0]
f 15.063181733 _8_ RTR  --- 9 DSR 68 [0 ffffffff 4 800] ------- [0:255 18:255 32 0] 3 [1 2] [0 2 0 0->16] [0 0 0 0->0]
r 15.063700435 _4_ RTR  --- 9 DSR 48 [0 ffffffff 1 800] ------- [0:255 18:255 32 0] 2 [1 2] [0 2 0 0->16] [0 0 0 0->0]
r 15.063700768 _0_ RTR  --- 9 DSR 48 [0 ffffffff 1 800] ------- [0:255 18:255 32 0] 2 [1 2] [0 2 0 0->16] [0 0 0 0->0]
r 15.063700768 _7_ RTR  --- 9 DSR 48 [0 ffffffff 1 800] ------- [0:255 18:255 32 0] 2 [1 2] [0 2 0 0->16] [0 0 0 0->0]
r 15.063700768 _2_ RTR  --- 9 DSR 48 [0 ffffffff 1 800] ------- [0:255 18:255 32 0] 2 [1 2] [0 2 0 0->16] [0 0 0 0->0]
r 15.063700847 _3_ RTR  --- 9 DSR 48 [0 ffffffff 1 800] ------- [0:255 18:255 32 0] 2 [1 2] [0 2 0 0->16] [0 0 0 0->0]
r 15.063700847 _5_ RTR  --- 9 DSR 48 [0 ffffffff 1 800] ------- [0:255 18:255 32 0] 2 [1 2] [0 2 0 0->16] [0 0 0 0->0]
f 15.063741724 _7_ RTR  --- 9 DSR 68 [0 ffffffff 3 800] ------- [0:255 18:255 32 0] 3 [1 2] [0 2 0 0->16] [0 0 0 0->0]
f 15.064710977 _5_ RTR  --- 9 DSR 68 [0 ffffffff 4 800] ------- [0:255 18:255 32 0] 3 [1 2] [0 2 0 0->16] [0 0 0 0->0]
r 15.065135637 _6_ RTR  --- 9 DSR 68 [0 ffffffff 9 800] ------- [0:255 18:255 32 0] 3 [1 2] [0 2 0 0->16] [0 0 0 0->0]
r 15.065135637 _12_ RTR  --- 9 DSR 68 [0 ffffffff 9 800] ------- [0:255 18:255 32 0] 3 [1 2] [0 2 0 0->16] [0 0 0 0->0]
r 15.065135775 _21_ RTR  --- 9 DSR 68 [0 ffffffff 9 800] ------- [0:255 18:255 32 0] 3 [1 2] [0 2 0 0->16] [0 0 0 0->0]
r 15.065135970 _3_ RTR  --- 9 DSR 68 [0 ffffffff 9 800] ------- [0:255 18:255 32 0] 3 [1 2] [0 2 0 0->16] [0 0 0 0->0]
r 15.065135970 _15_ RTR  --- 9 DSR 68 [0 ffffffff 9 800] ------- [0:255 18:255 32 0] 3 [1 2] [0 2 0 0->16] [0 0 0 0->0]
r 15.065135970 _10_ RTR  --- 9 DSR 68 [0 ffffffff 9 800] ------- [0:255 18:255 32 0] 3 [1 2] [0 2 0 0->16] [0 0 0 0->0]
r 15.065136049 _19_ RTR  --- 9 DSR 68 [0 ffffffff 9 800] ------- [0:255 18:255 32 0] 3 [1 2] [0 2 0 0->16] [0 0 0 0->0]
r 15.065136049 _7_ RTR  --- 9 DSR 68 [0 ffffffff 9 800] ------- [0:255 18:255 32 0] 3 [1 2] [0 2 0 0->16] [0 0 0 0->0]
r 15.065136049 _13_ RTR  --- 9 DSR 68 [0 ffffffff 9 800] ------- [0:255 18:255 32 0] 3 [1 2] [0 2 0 0->16] [0 0 0 0->0]
r 15.066165970 _3_ RTR  --- 9 DSR 48 [0 ffffffff 6 800] ------- [0:255 18:255 32 0] 2 [1 2] [0 2 0 0->16] [0 0 0 0->0]
r 15.066165970 _9_ RTR  --- 9 DSR 48 [0 ffffffff 6 800] ------- [0:255 18:255 32 0] 2 [1 2] [0 2 0 0->16] [0 0 0 0->0]
r 15.066166304 _0_ RTR  --- 9 DSR 48 [0 ffffffff 6 800] ------- [0:255 18:255 32 0] 2 [1 2] [0 2 0 0->16] [0 0 0 0->0]
r 15.066166304 _12_ RTR  --- 9 DSR 48 [0 ffffffff 6 800] ------- [0:255 18:255 32 0] 2 [1 2] [0 2 0 0->16] [0 0 0 0->0]
r 15.066166304 _7_ RTR  --- 9 DSR 48 [0 ffffffff 6 800] ------- [0:255 18:255 32 0] 2 [1 2] [0 2 0 0->16] [0 0 0 0->0]
r 15.066166382 _21_ RTR  --- 9 DSR 48 [0 ffffffff 6 800] ------- [0:255 18:255 32 0] 2 [1 2] [0 2 0 0->16] [0 0 0 0->0]
r 15.066166382 _4_ RTR  --- 9 DSR 48 [0 ffffffff 6 800] ------- [0:255 18:255 32 0] 2 [1 2] [0 2 0 0->16] [0 0 0 0->0]
r 15.066166382 _10_ RTR  --- 9 DSR 48 [0 ffffffff 6 800] ------- [0:255 18:255 32 0] 2 [1 2] [0 2 0 0->16] [0 0 0 0->0]
r 15.067236637 _4_ RTR  --- 9 DSR 68 [0 ffffffff 7 800] ------- [0:255 18:255 32 0] 3 [1 2] [0 2 0 0->16] [0 0 0 0->0]
r 15.067236637 _10_ RTR  --- 9 DSR 68 [0 ffffffff 7 800] ------- [0:255 18:255 32 0] 3 [1 2] [0 2 0 0->16] [0 0 0 0->0]
r 15.067236775 _22_ RTR  --- 9 DSR 68 [0 ffffffff 7 800] ------- [0:255 18:255 32 0] 3 [1 2] [0 2 0 0->16] [0 0 0 0->0]
r 15.067236970 _1_ RTR  --- 9 DSR 68 [0 ffffffff 7 800] ------- [0:255 18:255 32 0] 3 [1 2] [0 2 0 0->16] [0 0 0 0->0]
r 15.067236970 _6_ RTR  --- 9 DSR 68 [0 ffffffff 7 800] ------- [0:255 18:255 32 0] 3 [1 2] [0 2 0 0->16] [0 0 0 0->0]
r 15.067236970 _13_ RTR  --- 9 DSR 68 [0 ffffffff 7 800] ------- [0:255 18:255 32 0] 3 [1 2] [0 2 0 0->16] [0 0 0 0->0]
r 15.067236970 _8_ RTR  --- 9 DSR 68 [0 ffffffff 7 800] ------- [0:255 18:255 32 0] 3 [1 2] [0 2 0 0->16] [0 0 0 0->0]
r 15.067237049 _21_ RTR  --- 9 DSR 68 [0 ffffffff 7 800] ------- [0:255 18:255 32 0] 3 [1 2] [0 2 0 0->16] [0 0 0 0->0]
r 15.067237049 _9_ RTR  --- 9 DSR 68 [0 ffffffff 7 800] ------- [0:255 18:255 32 0] 3 [1 2] [0 2 0 0->16] [0 0 0 0->0]
r 15.067237049 _3_ RTR  --- 9 DSR 68 [0 ffffffff 7 800] ------- [0:255 18:255 32 0] 3 [1 2] [0 2 0 0->16] [0 0 0 0->0]
r 15.067237049 _20_ RTR  --- 9 DSR 68 [0 ffffffff 7 800] ------- [0:255 18:255 32 0] 3 [1 2] [0 2 0 0->16] [0 0 0 0->0]
r 15.067237049 _5_ RTR  --- 9 DSR 68 [0 ffffffff 7 800] ------- [0:255 18:255 32 0] 3 [1 2] [0 2 0 0->16] [0 0 0 0->0]
r 15.067237049 _11_ RTR  --- 9 DSR 68 [0 ffffffff 7 800] ------- [0:255 18:255 32 0] 3 [1 2] [0 2 0 0->16] [0 0 0 0->0]
f 15.068004780 _2_ RTR  --- 9 DSR 68 [0 ffffffff 4 800] ------- [0:255 18:255 32 0] 3 [1 2] [0 2 0 0->16] [0 0 0 0->0]
f 15.068039574 _13_ RTR  --- 9 DSR 92 [0 ffffffff 9 800] ------- [0:255 18:255 32 0] 4 [1 2] [0 2 0 0->16] [0 0 0 0->0]
r 15.068366970 _7_ RTR  --- 9 DSR 68 [0 ffffffff a 800] ------- [0:255 18:255 32 0] 3 [1 2] [0 2 0 0->16] [0 0 0 0->0]
r 15.068366970 _13_ RTR  --- 9 DSR 68 [0 ffffffff a 800] ------- [0:255 18:255 32 0] 3 [1 2] [0 2 0 0->16] [0 0 0 0->0]
r 15.068366970 _22_ RTR  --- 9 DSR 68 [0 ffffffff a 800] ------- [0:255 18:255 32 0] 3 [1 2] [0 2 0 0->16] [0 0 0 0->0]
r 15.068367108 _21_ RTR  --- 9 DSR 68 [0 ffffffff a 800] ------- [0:255 18:255 32 0] 3 [1 2] [0 2 0 0->16] [0 0 0 0->0]
r 15.068367108 _20_ RTR  --- 9 DSR 68 [0 ffffffff a 800] ------- [0:255 18:255 32 0] 3 [1 2] [0 2 0 0->16] [0 0 0 0->0]
r 15.068367304 _4_ RTR  --- 9 DSR 68 [0 ffffffff a 800] ------- [0:255 18:255 32 0] 3 [1 2] [0 2 0 0->16] [0 0 0 0->0]
r 15.068367304 _9_ RTR  --- 9 DSR 68 [0 ffffffff a 800] ------- [0:255 18:255 32 0] 3 [1 2] [0 2 0 0->16] [0 0 0 0->0]
r 15.068367304 _16_ RTR  --- 9 DSR 68 [0 ffffffff a 800] ------- [0:255 18:255 32 0] 3 [1 2] [0 2 0 0->16] [0 0 0 0->0]
r 15.068367304 _11_ RTR  --- 9 DSR 68 [0 ffffffff a 800] ------- [0:255 18:255 32 0] 3 [1 2] [0 2 0 0->16] [0 0 0 0->0]
r 15.068367382 _19_ RTR  --- 9 DSR 68 [0 ffffffff a 800] ------- [0:255 18:255 32 0] 3 [1 2] [0 2 0 0->16] [0 0 0 0->0]
r 15.068367382 _12_ RTR  --- 9 DSR 68 [0 ffffffff a 800] ------- [0:255 18:255 32 0] 3 [1 2] [0 2 0 0->16] [0 0 0 0->0]
r 15.068367382 _6_ RTR  --- 9 DSR 68 [0 ffffffff a 800] ------- [0:255 18:255 32 0] 3 [1 2] [0 2 0 0->16] [0 0 0 0->0]
r 15.068367382 _18_ RTR  --- 9 DSR 68 [0 ffffffff a 800] ------- [0:255 18:255 32 0] 3 [1 2] [0 2 0 0->16] [0 0 0 0->0]
r 15.068367382 _8_ RTR  --- 9 DSR 68 [0 ffffffff a 800] ------- [0:255 18:255 32 0] 3 [1 2] [0 2 0 0->16] [0 0 0 0->0]
r 15.068367382 _14_ RTR  --- 9 DSR 68 [0 ffffffff a 800] ------- [0:255 18:255 32 0] 3 [1 2] [0 2 0 0->16] [0 0 0 0->0]
f 15.068573754 _21_ RTR  --- 9 DSR 92 [0 ffffffff 9 800] ------- [0:255 18:255 32 0] 4 [1 2] [0 2 0 0->16] [0 0 0 0->0]
r 15.069457716 _5_ RTR  --- 9 DSR 68 [0 ffffffff 8 800] ------- [0:255 18:255 32 0] 3 [1 2] [0 2 0 0->16] [0 0 0 0->0]
r 15.069457716 _11_ RTR  --- 9 DSR 68 [0 ffffffff 8 800] ------- [0:255 18:255 32 0] 3 [1 2] [0 2 0 0->16] [0 0 0 0->0]
r 15.069457854 _22_ RTR  --- 9 DSR 68 [0 ffffffff 8 800] ------- [0:255 18:255 32 0] 3 [1 2] [0 2 0 0->16] [0 0 0 0->0]
r 15.069458049 _2_ RTR  --- 9 DSR 68 [0 ffffffff 8 800] ------- [0:255 18:255 32 0] 3 [1 2] [0 2 0 0->16] [0 0 0 0->0]
r 15.069458049 _7_ RTR  --- 9 DSR 68 [0 ffffffff 8 800] ------- [0:255 18:255 32 0] 3 [1 2] [0 2 0 0->16] [0 0 0 0->0]
r 15.069458049 _14_ RTR  --- 9 DSR 68 [0 ffffffff 8 800] ------- [0:255 18:255 32 0] 3 [1 2] [0 2 0 0->16] [0 0 0 0->0]
r 15.069458128 _20_ RTR  --- 9 DSR 68 [0 ffffffff 8 800] ------- [0:255 18:255 32 0] 3 [1 2] [0 2 0 0->16] [0 0 0 0->0]
r 15.069458128 _10_ RTR  --- 9 DSR 68 [0 ffffffff 8 800] ------- [0:255 18:255 32 0] 3 [1 2] [0 2 0 0->16] [0 0 0 0->0]
r 15.069458128 _4_ RTR  --- 9 DSR 68 [0 ffffffff 8 800] ------- [0:255 18:255 32 0] 3 [1 2] [0 2 0 0->16] [0 0 0 0->0]
f 15.069587891 _15_ RTR  --- 9 DSR 92 [0 ffffffff 9 800] ------- [0:255 18:255 32 0] 4 [1 2] [0 2 0 0->16] [0 0 0 0->0]
f 15.069954480 _14_ RTR  --- 9 DSR 92 [0 ffffffff a 800] ------- [0:255 18:255 32 0] 4 [1 2] [0 2 0 0->16] [0 0 0 0->0]
f 15.070224007 _19_ RTR  --- 9 DSR 92 [0 ffffffff 9 800] ------- [0:255 18:255 32 0] 4 [1 2] [0 2 0 0->16] [0 0 0 0->0]
r 15.070568049 _2_ RTR  --- 9 DSR 68 [0 ffffffff 5 800] ------- [0:255 18:255 32 0] 3 [1 2] [0 2 0 0->16] [0 0 0 0->0]
r 15.070568049 _8_ RTR  --- 9 DSR 68 [0 ffffffff 5 800] ------- [0:255 18:255 32 0] 3 [1 2] [0 2 0 0->16] [0 0 0 0->0]
r 15.070568382 _4_ RTR  --- 9 DSR 68 [0 ffffffff 5 800] ------- [0:255 18:255 32 0] 3 [1 2] [0 2 0 0->16] [0 0 0 0->0]
r 15.070568382 _11_ RTR  --- 9 DSR 68 [0 ffffffff 5 800] ------- [0:255 18:255 32 0] 3 [1 2] [0 2 0 0->16] [0 0 0 0->0]
r 15.070568461 _1_ RTR  --- 9 DSR 68 [0 ffffffff 5 800] ------- [0:255 18:255 32 0] 3 [1 2] [0 2 0 0->16] [0 0 0 0->0]
f 15.071459361 _20_ RTR  --- 9 DSR 92 [0 ffffffff 7 800] ------- [0:255 18:255 32 0] 4 [1 2] [0 2 0 0->16] [0 0 0 0->0]
r 15.071678382 _5_ RTR  --- 9 DSR 68 [0 ffffffff 2 800] ------- [0:255 18:255 32 0] 3 [1 2] [0 2 0 0->16] [0 0 0 0->0]
r 15.071678716 _1_ RTR  --- 9 DSR 68 [0 ffffffff 2 800] ------- [0:255 18:255 32 0] 3 [1 2] [0 2 0 0->16] [0 0 0 0->0]
r 15.071678716 _8_ RTR  --- 9 DSR 68 [0 ffffffff 2 800] ------- [0:255 18:255 32 0] 3 [1 2] [0 2 0 0->16] [0 0 0 0->0]
r 15.071678794 _4_ RTR  --- 9 DSR 68 [0 ffffffff 2 800] ------- [0:255 18:255 32 0] 3 [1 2] [0 2 0 0->16] [0 0 0 0->0]
f 15.071801848 _12_ RTR  --- 9 DSR 92 [0 ffffffff 9 800] ------- [0:255 18:255 32 0] 4 [1 2] [0 2 0 0->16] [0 0 0 0->0]
f 15.071855325 _22_ RTR  --- 9 DSR 68 [0 ffffffff 4 800] ------- [0:255 18:255 32 0] 3 [1 2] [0 2 0 0->16] [0 0 0 0->0]
s 15.072718811 _3_ RTR  --- 10 DSR 32 [0 0 0 0] ------- [3:255 18:255 32 0] 1 [1 2] [0 2 0 0->16] [0 0 0 0->0]
r 15.072971716 _15_ RTR  --- 9 DSR 92 [0 ffffffff 13 800] ------- [0:255 18:255 32 0] 4 [1 2] [0 2 0 0->16] [0 0 0 0->0]
r 15.072971716 _21_ RTR  --- 9 DSR 92 [0 ffffffff 13 800] ------- [0:255 18:255 32 0] 4 [1 2] [0 2 0 0->16] [0 0 0 0->0]
r 15.072971716 _16_ RTR  --- 9 DSR 92 [0 ffffffff 13 800] ------- [0:255 18:255 32 0] 4 [1 2] [0 2 0 0->16] [0 0 0 0->0]
r 15.072971854 _12_ RTR  --- 9 DSR 92 [0 ffffffff 13 800] ------- [0:255 18:255 32 0] 4 [1 2] [0 2 0 0->16] [0 0 0 0->0]
r 15.072971854 _13_ RTR  --- 9 DSR 92 [0 ffffffff 13 800] ------- [0:255 18:255 32 0] 4 [1 2] [0 2 0 0->16] [0 0 0 0->0]
r 15.072972049 _18_ RTR  --- 9 DSR 92 [0 ffffffff 13 800] ------- [0:255 18:255 32 0] 4 [1 2] [0 2 0 0->16] [0 0 0 0->0]
r 15.072972128 _9_ RTR  --- 9 DSR 92 [0 ffffffff 13 800] ------- [0:255 18:255 32 0] 4 [1 2] [0 2 0 0->16] [0 0 0 0->0]
r 15.072972128 _10_ RTR  --- 9 DSR 92 [0 ffffffff 13 800] ------- [0:255 18:255 32 0] 4 [1 2] [0 2 0 0->16] [0 0 0 0->0]
r 15.072972128 _20_ RTR  --- 9 DSR 92 [0 ffffffff 13 800] ------- [0:255 18:255 32 0] 4 [1 2] [0 2 0 0->16] [0 0 0 0->0]
f 15.073374420 _11_ RTR  --- 9 DSR 92 [0 ffffffff 7 800] ------- [0:255 18:255 32 0] 4 [1 2] [0 2 0 0->16] [0 0 0 0->0]
s 15.073682236 _18_ RTR  --- 12 DSR 68 [0 0 0 0] ------- [18:255 0:255 254 19] 5 [0 2] [1 2 5 0->18] [0 0 0 0->0]
r 15.074294187 _10_ RTR  --- 9 DSR 92 [0 ffffffff d 800] ------- [0:255 18:255 32 0] 4 [1 2] [0 2 0 0->16] [0 0 0 0->0]
r 15.074294187 _21_ RTR  --- 9 DSR 92 [0 ffffffff d 800] ------- [0:255 18:255 32 0] 4 [1 2] [0 2 0 0->16] [0 0 0 0->0]
r 15.074294187 _16_ RTR  --- 9 DSR 92 [0 ffffffff d 800] ------- [0:255 18:255 32 0] 4 [1 2] [0 2 0 0->16] [0 0 0 0->0]
r 15.074294187 _20_ RTR  --- 9 DSR 92 [0 ffffffff d 800] ------- [0:255 18:255 32 0] 4 [1 2] [0 2 0 0->16] [0 0 0 0->0]
r 15.074294325 _19_ RTR  --- 9 DSR 92 [0 ffffffff d 800] ------- [0:255 18:255 32 0] 4 [1 2] [0 2 0 0->16] [0 0 0 0->0]
r 15.074294325 _18_ RTR  --- 9 DSR 92 [0 ffffffff d 800] ------- [0:255 18:255 32 0] 4 [1 2] [0 2 0 0->16] [0 0 0 0->0]
r 15.074294325 _22_ RTR  --- 9 DSR 92 [0 ffffffff d 800] ------- [0:255 18:255 32 0] 4 [1 2] [0 2 0 0->16] [0 0 0 0->0]
r 15.074294520 _7_ RTR  --- 9 DSR 92 [0 ffffffff d 800] ------- [0:255 18:255 32 0] 4 [1 2] [0 2 0 0->16] [0 0 0 0->0]
r 15.074294520 _12_ RTR  --- 9 DSR 92 [0 ffffffff d 800] ------- [0:255 18:255 32 0] 4 [1 2] [0 2 0 0->16] [0 0 0 0->0]
r 15.074294520 _14_ RTR  --- 9 DSR 92 [0 ffffffff d 800] ------- [0:255 18:255 32 0] 4 [1 2] [0 2 0 0->16] [0 0 0 0->0]
r 15.074294599 _15_ RTR  --- 9 DSR 92 [0 ffffffff d 800] ------- [0:255 18:255 32 0] 4 [1 2] [0 2 0 0->16] [0 0 0 0->0]
r 15.074294599 _9_ RTR  --- 9 DSR 92 [0 ffffffff d 800] ------- [0:255 18:255 32 0] 4 [1 2] [0 2 0 0->16] [0 0 0 0->0]
r 15.074294599 _11_ RTR  --- 9 DSR 92 [0 ffffffff d 800] ------- [0:255 18:255 32 0] 4 [1 2] [0 2 0 0->16] [0 0 0 0->0]
r 15.074294599 _17_ RTR  --- 9 DSR 92 [0 ffffffff d 800] ------- [0:255 18:255 32 0] 4 [1 2] [0 2 0 0->16] [0 0 0 0->0]
s 15.074973857 _18_ RTR  --- 11 DSR 60 [0 0 0 0] ------- [18:255 0:255 254 10] 4 [0 2] [1 2 4 0->18] [0 0 0 0->0]
r 15.075576520 _19_ RTR  --- 9 DSR 92 [0 ffffffff 15 800] ------- [0:255 18:255 32 0] 4 [1 2] [0 2 0 0->16] [0 0 0 0->0]
r 15.075576520 _12_ RTR  --- 9 DSR 92 [0 ffffffff 15 800] ------- [0:255 18:255 32 0] 4 [1 2] [0 2 0 0->16] [0 0 0 0->0]
r 15.075576520 _13_ RTR  --- 9 DSR 92 [0 ffffffff 15 800] ------- [0:255 18:255 32 0] 4 [1 2] [0 2 0 0->16] [0 0 0 0->0]
r 15.075576658 _15_ RTR  --- 9 DSR 92 [0 ffffffff 15 800] ------- [0:255 18:255 32 0] 4 [1 2] [0 2 0 0->16] [0 0 0 0->0]
r 15.075576658 _9_ RTR  --- 9 DSR 92 [0 ffffffff 15 800] ------- [0:255 18:255 32 0] 4 [1 2] [0 2 0 0->16] [0 0 0 0->0]
r 15.075576658 _10_ RTR  --- 9 DSR 92 [0 ffffffff 15 800] ------- [0:255 18:255 32 0] 4 [1 2] [0 2 0 0->16] [0 0 0 0->0]
r 15.075576658 _16_ RTR  --- 9 DSR 92 [0 ffffffff 15 800] ------- [0:255 18:255 32 0] 4 [1 2] [0 2 0 0->16] [0 0 0 0->0]
r 15.075576854 _20_ RTR  --- 9 DSR 92 [0 ffffffff 15 800] ------- [0:255 18:255 32 0] 4 [1 2] [0 2 0 0->16] [0 0 0 0->0]
r 15.075576932 _6_ RTR  --- 9 DSR 92 [0 ffffffff 15 800] ------- [0:255 18:255 32 0] 4 [1 2] [0 2 0 0->16] [0 0 0 0->0]
r 15.075576932 _7_ RTR  --- 9 DSR 92 [0 ffffffff 15 800] ------- [0:255 18:255 32 0] 4 [1 2] [0 2 0 0->16] [0 0 0 0->0]
r 15.075576932 _18_ RTR  --- 9 DSR 92 [0 ffffffff 15 800] ------- [0:255 18:255 32 0] 4 [1 2] [0 2 0 0->16] [0 0 0 0->0]
r 15.075576932 _22_ RTR  --- 9 DSR 92 [0 ffffffff 15 800] ------- [0:255 18:255 32 0] 4 [1 2] [0 2 0 0->16] [0 0 0 0->0]
f 15.076470752 _17_ RTR  --- 9 DSR 120 [0 ffffffff d 800] ------- [0:255 18:255 32 0] 5 [1 2] [0 2 0 0->16] [0 0 0 0->0]
r 15.076727266 _20_ RTR  --- 9 DSR 68 [0 ffffffff 16 800] ------- [0:255 18:255 32 0] 3 [1 2] [0 2 0 0->16] [0 0 0 0->0]
r 15.076727266 _10_ RTR  --- 9 DSR 68 [0 ffffffff 16 800] ------- [0:255 18:255 32 0] 3 [1 2] [0 2 0 0->16] [0 0 0 0->0]
r 15.076727266 _11_ RTR  --- 9 DSR 68 [0 ffffffff 16 800] ------- [0:255 18:255 32 0] 3 [1 2] [0 2 0 0->16] [0 0 0 0->0]
r 15.076727404 _13_ RTR  --- 9 DSR 68 [0 ffffffff 16 800] ------- [0:255 18:255 32 0] 3 [1 2] [0 2 0 0->16] [0 0 0 0->0]
r 15.076727404 _7_ RTR  --- 9 DSR 68 [0 ffffffff 16 800] ------- [0:255 18:255 32 0] 3 [1 2] [0 2 0 0->16] [0 0 0 0->0]
r 15.076727404 _8_ RTR  --- 9 DSR 68 [0 ffffffff 16 800] ------- [0:255 18:255 32 0] 3 [1 2] [0 2 0 0->16] [0 0 0 0->0]
r 15.076727404 _14_ RTR  --- 9 DSR 68 [0 ffffffff 16 800] ------- [0:255 18:255 32 0] 3 [1 2] [0 2 0 0->16] [0 0 0 0->0]
r 15.076727599 _18_ RTR  --- 9 DSR 68 [0 ffffffff 16 800] ------- [0:255 18:255 32 0] 3 [1 2] [0 2 0 0->16] [0 0 0 0->0]
r 15.076727678 _16_ RTR  --- 9 DSR 68 [0 ffffffff 16 800] ------- [0:255 18:255 32 0] 3 [1 2] [0 2 0 0->16] [0 0 0 0->0]
r 15.076727678 _4_ RTR  --- 9 DSR 68 [0 ffffffff 16 800] ------- [0:255 18:255 32 0] 3 [1 2] [0 2 0 0->16] [0 0 0 0->0]
r 15.076727678 _21_ RTR  --- 9 DSR 68 [0 ffffffff 16 800] ------- [0:255 18:255 32 0] 3 [1 2] [0 2 0 0->16] [0 0 0 0->0]
r 15.076727678 _5_ RTR  --- 9 DSR 68 [0 ffffffff 16 800] ------- [0:255 18:255 32 0] 3 [1 2] [0 2 0 0->16] [0 0 0 0->0]
r 15.076727678 _17_ RTR  --- 9 DSR 68 [0 ffffffff 16 800] ------- [0:255 18:255 32 0] 3 [1 2] [0 2 0 0->16] [0 0 0 0->0]
f 15.078181815 _16_ RTR  --- 9 DSR 92 [0 ffffffff a 800] ------- [0:255 18:255 32 0] 4 [1 2] [0 2 0 0->16] [0 0 0 0->0]
s 15.078307864 _7_ AGT  --- 16 cbr 512 [0 0 0 0] ------- [7:0 11:0 32 0] [1] 0 0
r 15.078307864 _7_ RTR  --- 16 cbr 512 [0 0 0 0] ------- [7:0 11:0 32 0] [1] 0 0
SFESTs 15.078307864 _7_ 16 [7 -> 11] 1(1) to 11 [7 |11 ]
s 15.078307864 _7_ RTR  --- 16 cbr 548 [0 0 0 0] ------- [7:0 11:0 32 11] [1] 0 0
r 15.078435599 _19_ RTR  --- 12 DSR 68 [13a 13 12 800] ------- [18:255 0:255 254 19] 5 [0 2] [1 2 5 0->18] [0 0 0 0->0]
f 15.078435599 _19_ RTR  --- 12 DSR 68 [13a 13 12 800] ------- [18:255 0:255 253 9] 5 [0 2] [1 2 5 0->18] [0 0 0 0->0]
r 15.080497835 _9_ RTR  --- 12 DSR 68 [13a 9 13 800] ------- [18:255 0:255 253 9] 5 [0 2] [1 2 5 0->18] [0 0 0 0->0]
f 15.080497835 _9_ RTR  --- 12 DSR 68 [13a 9 13 800] ------- [18:255 0:255 252 3] 5 [0 2] [1 2 5 0->18] [0 0 0 0->0]
s 15.081370418 _18_ RTR  --- 14 DSR 68 [0 0 0 0] ------- [18:255 0:255 254 21] 5 [0 2] [1 2 5 0->18] [0 0 0 0->0]
r 15.081604797 _0_ RTR  --- 10 DSR 32 [0 ffffffff 3 800] ------- [3:255 18:255 32 0] 1 [1 2] [0 2 0 0->16] [0 0 0 0->0]
r 15.081604797 _6_ RTR  --- 10 DSR 32 [0 ffffffff 3 800] ------- [3:255 18:255 32 0] 1 [1 2] [0 2 0 0->16] [0 0 0 0->0]
r 15.081605131 _9_ RTR  --- 10 DSR 32 [0 ffffffff 3 800] ------- [3:255 18:255 32 0] 1 [1 2] [0 2 0 0->16] [0 0 0 0->0]
r 15.081605131 _4_ RTR  --- 10 DSR 32 [0 ffffffff 3 800] ------- [3:255 18:255 32 0] 1 [1 2] [0 2 0 0->16] [0 0 0 0->0]
r 15.081605210 _1_ RTR  --- 10 DSR 32 [0 ffffffff 3 800] ------- [3:255 18:255 32 0] 1 [1 2] [0 2 0 0->16] [0 0 0 0->0]
s 15.082340238 _18_ RTR  --- 13 DSR 68 [0 0 0 0] ------- [18:255 0:255 254 13] 5 [0 2] [1 2 5 0->18] [0 0 0 0->0]
f 15.082861160 _9_ RTR  --- 10 DSR 48 [0 ffffffff 3 800] ------- [3:255 18:255 32 0] 2 [1 2] [0 2 0 0->16] [0 0 0 0->0]
f 15.083780661 _0_ RTR  --- 10 DSR 48 [0 ffffffff 3 800] ------- [3:255 18:255 32 0] 2 [1 2] [0 2 0 0->16] [0 0 0 0->0]
r 15.084291034 _9_ RTR  --- 9 DSR 92 [0 ffffffff c 800] ------- [0:255 18:255 32 0] 4 [1 2] [0 2 0 0->16] [0 0 0 0->0]
r 15.084291034 _15_ RTR  --- 9 DSR 92 [0 ffffffff c 800] ------- [0:255 18:255 32 0] 4 [1 2] [0 2 0 0->16] [0 0 0 0->0]
r 15.084291034 _21_ RTR  --- 9 DSR 92 [0 ffffffff c 800] ------- [0:255 18:255 32 0] 4 [1 2] [0 2 0 0->16] [0 0 0 0->0]
r 15.084291172 _19_ RTR  --- 9 DSR 92 [0 ffffffff c 800] ------- [0:255 18:255 32 0] 4 [1 2] [0 2 0 0->16] [0 0 0 0->0]
r 15.084291367 _6_ RTR  --- 9 DSR 92 [0 ffffffff c 800] ------- [0:255 18:255 32 0] 4 [1 2] [0 2 0 0->16] [0 0 0 0->0]
r 15.084291367 _13_ RTR  --- 9 DSR 92 [0 ffffffff c 800] ------- [0:255 18:255 32 0] 4 [1 2] [0 2 0 0->16] [0 0 0 0->0]
r 15.084291446 _10_ RTR  --- 9 DSR 92 [0 ffffffff c 800] ------- [0:255 18:255 32 0] 4 [1 2] [0 2 0 0->16] [0 0 0 0->0]
r 15.084291446 _16_ RTR  --- 9 DSR 92 [0 ffffffff c 800] ------- [0:255 18:255 32 0] 4 [1 2] [0 2 0 0->16] [0 0 0 0->0]
f 15.084740597 _6_ RTR  --- 10 DSR 48 [0 ffffffff 3 800] ------- [3:255 18:255 32 0] 2 [1 2] [0 2 0 0->16] [0 0 0 0->0]
s 15.084995139 _18_ RTR  --- 15 DSR 60 [0 0 0 0] ------- [18:255 0:255 254 22] 4 [0 2] [1 2 4 0->18] [0 0 0 0->0]
r 15.086279034 _3_ RTR  --- 12 DSR 68 [13a 3 9 800] ------- [18:255 0:255 252 3] 5 [0 2] [1 2 5 0->18] [0 0 0 0->0]
f 15.086279034 _3_ RTR  --- 12 DSR 68 [13a 3 9 800] ------- [18:255 0:255 251 0] 5 [0 2] [1 2 5 0->18] [0 0 0 0->0]
f 15.086954613 _4_ RTR  --- 10 DSR 48 [0 ffffffff 3 800] ------- [3:255 18:255 32 0] 2 [1 2] [0 2 0 0->16] [0 0 0 0->0]
f 15.087363594 _1_ RTR  --- 10 DSR 48 [0 ffffffff 3 800] ------- [3:255 18:255 32 0] 2 [1 2] [0 2 0 0->16] [0 0 0 0->0]
r 15.092282015 _11_ RTR  --- 16 cbr 548 [13a b 7 800] ------- [7:0 11:0 32 11] [1] 1 0
r 15.092282015 _11_ AGT  --- 16 cbr 512 [13a b 7 800] ------- [7:0 11:0 32 11] [1] 1 0
r 15.093878348 _8_ RTR  --- 9 DSR 92 [0 ffffffff b 800] ------- [0:255 18:255 32 0] 4 [1 2] [0 2 0 0->16] [0 0 0 0->0]
r 15.093878348 _22_ RTR  --- 9 DSR 92 [0 ffffffff b 800] ------- [0:255 18:255 32 0] 4 [1 2] [0 2 0 0->16] [0 0 0 0->0]
r 15.093878348 _14_ RTR  --- 9 DSR 92 [0 ffffffff b 800] ------- [0:255 18:255 32 0] 4 [1 2] [0 2 0 0->16] [0 0 0 0->0]
r 15.093878486 _20_ RTR  --- 9 DSR 92 [0 ffffffff b 800] ------- [0:255 18:255 32 0] 4 [1 2] [0 2 0 0->16] [0 0 0 0->0]
r 15.093878682 _5_ RTR  --- 9 DSR 92 [0 ffffffff b 800] ------- [0:255 18:255 32 0] 4 [1 2] [0 2 0 0->16] [0 0 0 0->0]
r 15.093878682 _10_ RTR  --- 9 DSR 92 [0 ffffffff b 800] ------- [0:255 18:255 32 0] 4 [1 2] [0 2 0 0->16] [0 0 0 0->0]
r 15.093878682 _17_ RTR  --- 9 DSR 92 [0 ffffffff b 800] ------- [0:255 18:255 32 0] 4 [1 2] [0 2 0 0->16] [0 0 0 0->0]
r 15.093878760 _18_ RTR  --- 9 DSR 92 [0 ffffffff b 800] ------- [0:255 18:255 32 0] 4 [1 2] [0 2 0 0->16] [0 0 0 0->0]
r 15.093878760 _13_ RTR  --- 9 DSR 92 [0 ffffffff b 800] ------- [0:255 18:255 32 0] 4 [1 2] [0 2 0 0->16] [0 0 0 0->0]
r 15.093878760 _7_ RTR  --- 9 DSR 92 [0 ffffffff b 800] ------- [0:255 18:255 32 0] 4 [1 2] [0 2 0 0->16] [0 0 0 0->0]
r 15.095160820 _18_ RTR  --- 9 DSR 92 [0 ffffffff 14 800] ------- [0:255 18:255 32 0] 4 [1 2] [0 2 0 0->16] [0 0 0 0->0]
r 15.095160820 _13_ RTR  --- 9 DSR 92 [0 ffffffff 14 800] ------- [0:255 18:255 32 0] 4 [1 2] [0 2 0 0->16] [0 0 0 0->0]
r 15.095160820 _22_ RTR  --- 9 DSR 92 [0 ffffffff 14 800] ------- [0:255 18:255 32 0] 4 [1 2] [0 2 0 0->16] [0 0 0 0->0]
r 15.095160820 _14_ RTR  --- 9 DSR 92 [0 ffffffff 14 800] ------- [0:255 18:255 32 0] 4 [1 2] [0 2 0 0->16] [0 0 0 0->0]
r 15.095160958 _16_ RTR  --- 9 DSR 92 [0 ffffffff 14 800] ------- [0:255 18:255 32 0] 4 [1 2] [0 2 0 0->16] [0 0 0 0->0]
r 15.095160958 _10_ RTR  --- 9 DSR 92 [0 ffffffff 14 800] ------- [0:255 18:255 32 0] 4 [1 2] [0 2 0 0->16] [0 0 0 0->0]
r 15.095160958 _11_ RTR  --- 9 DSR 92 [0 ffffffff 14 800] ------- [0:255 18:255 32 0] 4 [1 2] [0 2 0 0->16] [0 0 0 0->0]
r 15.095160958 _17_ RTR  --- 9 DSR 92 [0 ffffffff 14 800] ------- [0:255 18:255 32 0] 4 [1 2] [0 2 0 0->16] [0 0 0 0->0]
r 15.095161153 _21_ RTR  --- 9 DSR 92 [0 ffffffff 14 800] ------- [0:255 18:255 32 0] 4 [1 2] [0 2 0 0->16] [0 0 0 0->0]
r 15.095161232 _7_ RTR  --- 9 DSR 92 [0 ffffffff 14 800] ------- [0:255 18:255 32 0] 4 [1 2] [0 2 0 0->16] [0 0 0 0->0]
r 15.095161232 _19_ RTR  --- 9 DSR 92 [0 ffffffff 14 800] ------- [0:255 18:255 32 0] 4 [1 2] [0 2 0 0->16] [0 0 0 0->0]
r 15.095161232 _8_ RTR  --- 9 DSR 92 [0 ffffffff 14 800] ------- [0:255 18:255 32 0] 4 [1 2] [0 2 0 0->16] [0 0 0 0->0]