n -t * -s 0  -x 100 -y 0 -Z 0 -z 30  -v circle -c black
n -t * -s 1  -x 300 -y 0 -Z 0 -z 30  -v circle -c black
n -t * -s 2  -x 500 -y 0 -Z 0 -z 30  -v circle -c black
n -t * -s 3  -x 100 -y 100 -Z 0 -z 30  -v circle -c black
n -t * -s 4  -x 300 -y 100 -Z 0 -z 30  -v circle -c black
n -t * -s 5  -x 500 -y 100 -Z 0 -z 30  -v circle -c black
n -t * -s 6  -x 100 -y 200 -Z 0 -z 30  -v circle -c black
n -t * -s 7  -x 300 -y 200 -Z 0 -z 30  -v circle -c black
n -t * -s 8  -x 500 -y 200 -Z 0 -z 30  -v circle -c black
n -t * -s 9  -x 100 -y 300 -Z 0 -z 30  -v circle -c black
n -t * -s 10  -x 300 -y 300 -Z 0 -z 30  -v circle -c black
n -t * -s 11  -x 500 -y 300 -Z 0 -z 30  -v circle -c black
n -t * -s 12  -x 100 -y 400 -Z 0 -z 30  -v circle -c black
n -t * -s 13  -x 300 -y 400 -Z 0 -z 30  -v circle -c black
n -t * -s 14  -x 500 -y 400 -Z 0 -z 30  -v circle -c black
n -t * -s 15  -x 100 -y 500 -Z 0 -z 30  -v circle -c black
n -t * -s 16  -x 300 -y 500 -Z 0 -z 30  -v circle -c black
n -t * -s 17  -x 500 -y 500 -Z 0 -z 30  -v circle -c black
n -t * -s 18  -x 400 -y 500 -Z 0 -z 30  -v circle -c black
n -t * -s 19  -x 200 -y 500 -Z 0 -z 30  -v circle -c black
n -t * -s 20  -x 400 -y 400 -Z 0 -z 30  -v circle -c black
n -t * -s 21  -x 200 -y 400 -Z 0 -z 30  -v circle -c black
n -t * -s 22  -x 400 -y 300 -Z 0 -z 30  -v circle -c black
V -t * -v 1.0a5 -a 0
W -t * -x 500 -y 500
A -t * -n 1 -p 0 -o 0xffffffff -c 31 -a 1
A -t * -h 1 -m 2147483647 -s 0
+ -t 15.000000000 -s 0 -d -1 -p cbr -e 512 -c 2 -a 0 -i 0 -k AGT 
- -t 15.000000000 -s 0 -d -1 -p cbr -e 512 -c 2 -a 0 -i 0 -k AGT
h -t 15.000000000 -s 0 -d -1 -p cbr -e 512 -c 2 -a 0 -i 0 -k AGT
+ -t 15.000000000 -s 3 -d -1 -p cbr -e 512 -c 2 -a 0 -i 2 -k AGT 
- -t 15.000000000 -s 3 -d -1 -p cbr -e 512 -c 2 -a 0 -i 2 -k AGT
h -t 15.000000000 -s 3 -d -1 -p cbr -e 512 -c 2 -a 0 -i 2 -k AGT
+ -t 15.000000000 -s 7 -d -1 -p cbr -e 512 -c 2 -a 0 -i 4 -k AGT 
- -t 15.000000000 -s 7 -d -1 -p cbr -e 512 -c 2 -a 0 -i 4 -k AGT
h -t 15.000000000 -s 7 -d -1 -p cbr -e 512 -c 2 -a 0 -i 4 -k AGT
+ -t 15.000940664 -s 3 -d -1 -p DSR -e 32 -c 2 -a 0 -i 3 -k RTR 
- -t 15.000940664 -s 3 -d -1 -p DSR -e 32 -c 2 -a 0 -i 3 -k RTR
h -t 15.000940664 -s 3 -d -1 -p DSR -e 32 -c 2 -a 0 -i 3 -k RTR
+ -t 15.001315927 -s 0 -d -1 -p DSR -e 32 -c 2 -a 0 -i 1 -k RTR 
- -t 15.001315927 -s 0 -d -1 -p DSR -e 32 -c 2 -a 0 -i 1 -k RTR
h -t 15.001315927 -s 0 -d -1 -p DSR -e 32 -c 2 -a 0 -i 1 -k RTR
+ -t 15.007013462 -s 7 -d -1 -p DSR -e 32 -c 2 -a 0 -i 5 -k RTR 
- -t 15.007013462 -s 7 -d -1 -p DSR -e 32 -c 2 -a 0 -i 5 -k RTR
h -t 15.007013462 -s 7 -d -1 -p DSR -e 32 -c 2 -a 0 -i 5 -k RTR
+ -t 15.008632996 -s 11 -d 7 -p DSR -e 44 -c 2 -a 0 -i 6 -k RTR 
- -t 15.008632996 -s 11 -d 7 -p DSR -e 44 -c 2 -a 0 -i 6 -k RTR
h -t 15.008632996 -s 11 -d 7 -p DSR -e 44 -c 2 -a 0 -i 6 -k RTR
+ -t 15.010339232 -s 7 -d 11 -p cbr -e 548 -c 2 -a 0 -i 4 -k RTR 
- -t 15.010339232 -s 7 -d 11 -p cbr -e 548 -c 2 -a 0 -i 4 -k RTR
h -t 15.010339232 -s 7 -d 11 -p cbr -e 548 -c 2 -a 0 -i 4 -k RTR
r -t 15.016341468 -s 11 -d 11 -p cbr -e 512 -c 2 -a 0 -i 4 -k AGT
+ -t 15.052887298 -s 0 -d -1 -p DSR -e 32 -c 2 -a 0 -i 9 -k RTR 
- -t 15.052887298 -s 0 -d -1 -p DSR -e 32 -c 2 -a 0 -i 9 -k RTR
h -t 15.052887298 -s 0 -d -1 -p DSR -e 32 -c 2 -a 0 -i 9 -k RTR
+ -t 15.056855066 -s 3 -d -1 -p DSR -e 48 -c 2 -a 0 -i 9 -k RTR 
- -t 15.056855066 -s 3 -d -1 -p DSR -e 48 -c 2 -a 0 -i 9 -k RTR
h -t 15.056855066 -s 3 -d -1 -p DSR -e 48 -c 2 -a 0 -i 9 -k RTR
+ -t 15.061549768 -s 4 -d -1 -p DSR -e 48 -c 2 -a 0 -i 9 -k RTR 
- -t 15.061549768 -s 4 -d -1 -p DSR -e 48 -c 2 -a 0 -i 9 -k RTR
h -t 15.061549768 -s 4 -d -1 -p DSR -e 48 -c 2 -a 0 -i 9 -k RTR
+ -t 15.061907063 -s 1 -d -1 -p DSR -e 48 -c 2 -a 0 -i 9 -k RTR 
- -t 15.061907063 -s 1 -d -1 -p DSR -e 48 -c 2 -a 0 -i 9 -k RTR
h -t 15.061907063 -s 1 -d -1 -p DSR -e 48 -c 2 -a 0 -i 9 -k RTR
+ -t 15.061941352 -s 6 -d -1 -p DSR -e 48 -c 2 -a 0 -i 9 -k RTR 
- -t 15.061941352 -s 6 -d -1 -p DSR -e 48 -c 2 -a 0 -i 9 -k RTR
h -t 15.061941352 -s 6 -d -1 -p DSR -e 48 -c 2 -a 0 -i 9 -k RTR
+ -t 15.062129402 -s 9 -d -1 -p DSR -e 68 -c 2 -a 0 -i 9 -k RTR 
- -t 15.062129402 -s 9 -d -1 -p DSR -e 68 -c 2 -a 0 -i 9 -k RTR
h -t 15.062129402 -s 9 -d -1 -p DSR -e 68 -c 2 -a 0 -i 9 -k RTR
+ -t 15.063106764 -s 10 -d -1 -p DSR -e 68 -c 2 -a 0 -i 9 -k RTR 
- -t 15.063106764 -s 10 -d -1 -p DSR -e 68 -c 2 -a 0 -i 9 -k RTR
h -t 15.063106764 -s 10 -d -1 -p DSR -e 68 -c 2 -a 0 -i 9 -k RTR
+ -t 15.063181733 -s 8 -d -1 -p DSR -e 68 -c 2 -a 0 -i 9 -k RTR 
- -t 15.063181733 -s 8 -d -1 -p DSR -e 68 -c 2 -a 0 -i 9 -k RTR
h -t 15.063181733 -s 8 -d -1 -p DSR -e 68 -c 2 -a 0 -i 9 -k RTR
+ -t 15.063741724 -s 7 -d -1 -p DSR -e 68 -c 2 -a 0 -i 9 -k RTR 
- -t 15.063741724 -s 7 -d -1 -p DSR -e 68 -c 2 -a 0 -i 9 -k RTR
h -t 15.063741724 -s 7 -d -1 -p DSR -e 68 -c 2 -a 0 -i 9 -k RTR
+ -t 15.064710977 -s 5 -d -1 -p DSR -e 68 -c 2 -a 0 -i 9 -k RTR 
- -t 15.064710977 -s 5 -d -1 -p DSR -e 68 -c 2 -a 0 -i 9 -k RTR
h -t 15.064710977 -s 5 -d -1 -p DSR -e 68 -c 2 -a 0 -i 9 -k RTR
+ -t 15.068004780 -s 2 -d -1 -p DSR -e 68 -c 2 -a 0 -i 9 -k RTR 
- -t 15.068004780 -s 2 -d -1 -p DSR -e 68 -c 2 -a 0 -i 9 -k RTR
h -t 15.068004780 -s 2 -d -1 -p DSR -e 68 -c 2 -a 0 -i 9 -k RTR
+ -t 15.068039574 -s 13 -d -1 -p DSR -e 92 -c 2 -a 0 -i 9 -k RTR 
- -t 15.068039574 -s 13 -d -1 -p DSR -e 92 -c 2 -a 0 -i 9 -k RTR
h -t 15.068039574 -s 13 -d -1 -p DSR -e 92 -c 2 -a 0 -i 9 -k RTR
+ -t 15.068573754 -s 21 -d -1 -p DSR -e 92 -c 2 -a 0 -i 9 -k RTR 
- -t 15.068573754 -s 21 -d -1 -p DSR -e 92 -c 2 -a 0 -i 9 -k RTR
h -t 15.068573754 -s 21 -d -1 -p DSR -e 92 -c 2 -a 0 -i 9 -k RTR
+ -t 15.069587891 -s 15 -d -1 -p DSR -e 92 -c 2 -a 0 -i 9 -k RTR 
- -t 15.069587891 -s 15 -d -1 -p DSR -e 92 -c 2 -a 0 -i 9 -k RTR
h -t 15.069587891 -s 15 -d -1 -p DSR -e 92 -c 2 -a 0 -i 9 -k RTR
+ -t 15.069954480 -s 14 -d -1 -p DSR -e 92 -c 2 -a 0 -i 9 -k RTR 
- -t 15.069954480 -s 14 -d -1 -p DSR -e 92 -c 2 -a 0 -i 9 -k RTR
h -t 15.069954480 -s 14 -d -1 -p DSR -e 92 -c 2 -a 0 -i 9 -k RTR
+ -t 15.070224007 -s 19 -d -1 -p DSR -e 92 -c 2 -a 0 -i 9 -k RTR 
- -t 15.070224007 -s 19 -d -1 -p DSR -e 92 -c 2 -a 0 -i 9 -k RTR
h -t 15.070224007 -s 19 -d -1 -p DSR -e 92 -c 2 -a 0 -i 9 -k RTR
+ -t 15.071459361 -s 20 -d -1 -p DSR -e 92 -c 2 -a 0 -i 9 -k RTR 
- -t 15.071459361 -s 20 -d -1 -p DSR -e 92 -c 2 -a 0 -i 9 -k RTR
h -t 15.071459361 -s 20 -d -1 -p DSR -e 92 -c 2 -a 0 -i 9 -k RTR
+ -t 15.071801848 -s 12 -d -1 -p DSR -e 92 -c 2 -a 0 -i 9 -k RTR 
- -t 15.071801848 -s 12 -d -1 -p DSR -e 92 -c 2 -a 0 -i 9 -k RTR
h -t 15.071801848 -s 12 -d -1 -p DSR -e 92 -c 2 -a 0 -i 9 -k RTR
+ -t 15.071855325 -s 22 -d -1 -p DSR -e 68 -c 2 -a 0 -i 9 -k RTR 
- -t 15.071855325 -s 22 -d -1 -p DSR -e 68 -c 2 -a 0 -i 9 -k RTR
h -t 15.071855325 -s 22 -d -1 -p DSR -e 68 -c 2 -a 0 -i 9 -k RTR
+ -t 15.072718811 -s 3 -d -1 -p DSR -e 32 -c 2 -a 0 -i 10 -k RTR 
- -t 15.072718811 -s 3 -d -1 -p DSR -e 32 -c 2 -a 0 -i 10 -k RTR
h -t 15.072718811 -s 3 -d -1 -p DSR -e 32 -c 2 -a 0 -i 10 -k RTR
+ -t 15.073374420 -s 11 -d -1 -p DSR -e 92 -c 2 -a 0 -i 9 -k RTR 
- -t 15.073374420 -s 11 -d -1 -p DSR -e 92 -c 2 -a 0 -i 9 -k RTR
h -t 15.073374420 -s 11 -d -1 -p DSR -e 92 -c 2 -a 0 -i 9 -k RTR
+ -t 15.073682236 -s 18 -d 19 -p DSR -e 68 -c 2 -a 0 -i 12 -k RTR 
- -t 15.073682236 -s 18 -d 19 -p DSR -e 68 -c 2 -a 0 -i 12 -k RTR
h -t 15.073682236 -s 18 -d 19 -p DSR -e 68 -c 2 -a 0 -i 12 -k RTR
+ -t 15.074973857 -s 18 -d 10 -p DSR -e 60 -c 2 -a 0 -i 11 -k RTR 
- -t 15.074973857 -s 18 -d 10 -p DSR -e 60 -c 2 -a 0 -i 11 -k RTR
h -t 15.074973857 -s 18 -d 10 -p DSR -e 60 -c 2 -a 0 -i 11 -k RTR
+ -t 15.076470752 -s 17 -d -1 -p DSR -e 120 -c 2 -a 0 -i 9 -k RTR 
- -t 15.076470752 -s 17 -d -1 -p DSR -e 120 -c 2 -a 0 -i 9 -k RTR
h -t 15.076470752 -s 17 -d -1 -p DSR -e 120 -c 2 -a 0 -i 9 -k RTR
+ -t 15.078181815 -s 16 -d -1 -p DSR -e 92 -c 2 -a 0 -i 9 -k RTR 
- -t 15.078181815 -s 16 -d -1 -p DSR -e 92 -c 2 -a 0 -i 9 -k RTR
h -t 15.078181815 -s 16 -d -1 -p DSR -e 92 -c 2 -a 0 -i 9 -k RTR
+ -t 15.078307864 -s 7 -d -1 -p cbr -e 512 -c 2 -a 0 -i 16 -k AGT 
- -t 15.078307864 -s 7 -d -1 -p cbr -e 512 -c 2 -a 0 -i 16 -k AGT
h -t 15.078307864 -s 7 -d -1 -p cbr -e 512 -c 2 -a 0 -i 16 -k AGT
+ -t 15.078307864 -s 7 -d 11 -p cbr -e 548 -c 2 -a 0 -i 16 -k RTR 
- -t 15.078307864 -s 7 -d 11 -p cbr -e 548 -c 2 -a 0 -i 16 -k RTR
h -t 15.078307864 -s 7 -d 11 -p cbr -e 548 -c 2 -a 0 -i 16 -k RTR
+ -t 15.078435599 -s 19 -d 9 -p DSR -e 68 -c 2 -a 0 -i 12 -k RTR 
- -t 15.078435599 -s 19 -d 9 -p DSR -e 68 -c 2 -a 0 -i 12 -k RTR
h -t 15.078435599 -s 19 -d 9 -p DSR -e 68 -c 2 -a 0 -i 12 -k RTR
+ -t 15.080497835 -s 9 -d 3 -p DSR -e 68 -c 2 -a 0 -i 12 -k RTR 
- -t 15.080497835 -s 9 -d 3 -p DSR -e 68 -c 2 -a 0 -i 12 -k RTR
h -t 15.080497835 -s 9 -d 3 -p DSR -e 68 -c 2 -a 0 -i 12 -k RTR
+ -t 15.081370418 -s 18 -d 21 -p DSR -e 68 -c 2 -a 0 -i 14 -k RTR 
- -t 15.081370418 -s 18 -d 21 -p DSR -e 68 -c 2 -a 0 -i 14 -k RTR
h -t 15.081370418 -s 18 -d 21 -p DSR -e 68 -c 2 -a 0 -i 14 -k RTR
+ -t 15.082340238 -s 18 -d 13 -p DSR -e 68 -c 2 -a 0 -i 13 -k RTR 
- -t 15.082340238 -s 18 -d 13 -p DSR -e 68 -c 2 -a 0 -i 13 -k RTR
h -t 15.082340238 -s 18 -d 13 -p DSR -e 68 -c 2 -a 0 -i 13 -k RTR
+ -t 15.082861160 -s 9 -d -1 -p DSR -e 48 -c 2 -a 0 -i 10 -k RTR 
- -t 15.082861160 -s 9 -d -1 -p DSR -e 48 -c 2 -a 0 -i 10 -k RTR
h -t 15.082861160 -s 9 -d -1 -p DSR -e 48 -c 2 -a 0 -i 10 -k RTR
+ -t 15.083780661 -s 0 -d -1 -p DSR -e 48 -c 2 -a 0 -i 10 -k RTR 
- -t 15.083780661 -s 0 -d -1 -p DSR -e 48 -c 2 -a 0 -i 10 -k RTR
h -t 15.083780661 -s 0 -d -1 -p DSR -e 48 -c 2 -a 0 -i 10 -k RTR
+ -t 15.084740597 -s 6 -d -1 -p DSR -e 48 -c 2 -a 0 -i 10 -k RTR 
- -t 15.084740597 -s 6 -d -1 -p DSR -e 48 -c 2 -a 0 -i 10 -k RTR
h -t 15.084740597 -s 6 -d -1 -p DSR -e 48 -c 2 -a 0 -i 10 -k RTR
+ -t 15.084995139 -s 18 -d 22 -p DSR -e 60 -c 2 -a 0 -i 15 -k RTR 
- -t 15.084995139 -s 18 -d 22 -p DSR -e 60 -c 2 -a 0 -i 15 -k RTR
h -t 15.084995139 -s 18 -d 22 -p DSR -e 60 -c 2 -a 0 -i 15 -k RTR
+ -t 15.086279034 -s 3 -d 0 -p DSR -e 68 -c 2 -a 0 -i 12 -k RTR 
- -t 15.086279034 -s 3 -d 0 -p DSR -e 68 -c 2 -a 0 -i 12 -k RTR
h -t 15.086279034 -s 3 -d 0 -p DSR -e 68 -c 2 -a 0 -i 12 -k RTR
+ -t 15.086954613 -s 4 -d -1 -p DSR -e 48 -c 2 -a 0 -i 10 -k RTR 
- -t 15.086954613 -s 4 -d -1 -p DSR -e 48 -c 2 -a 0 -i 10 -k RTR
h -t 15.086954613 -s 4 -d -1 -p DSR -e 48 -c 2 -a 0 -i 10 -k RTR
+ -t 15.087363594 -s 1 -d -1 -p DSR -e 48 -c 2 -a 0 -i 10 -k RTR 
- -t 15.087363594 -s 1 -d -1 -p DSR -e 48 -c 2 -a 0 -i 10 -k RTR
h -t 15.087363594 -s 1 -d -1 -p DSR -e 48 -c 2 -a 0 -i 10 -k RTR
r -t 15.092282015 -s 11 -d 11 -p cbr -e 512 -c 2 -a 0 -i 16 -k AGT
+ -t 15.097435947 -s 18 -d 11 -p DSR -e 68 -c 2 -a 0 -i 17 -k RTR 
- -t 15.097435947 -s 18 -d 11 -p DSR -e 68 -c 2 -a 0 -i 17 -k RTR
h -t 15.097435947 -s 18 -d 11 -p DSR -e 68 -c 2 -a 0 -i 17 -k RTR
+ -t 15.099310411 -s 10 -d 4 -p DSR -e 60 -c 2 -a 0 -i 11 -k RTR 
- -t 15.099310411 -s 10 -d 4 -p DSR -e 60 -c 2 -a 0 -i 11 -k RTR
h -t 15.099310411 -s 10 -d 4 -p DSR -e 60 -c 2 -a 0 -i 11 -k RTR
+ -t 15.100545825 -s 21 -d 6 -p DSR -e 56 -c 2 -a 0 -i 22 -k RTR 
- -t 15.100545825 -s 21 -d 6 -p DSR -e 56 -c 2 -a 0 -i 22 -k RTR
h -t 15.100545825 -s 21 -d 6 -p DSR -e 56 -c 2 -a 0 -i 22 -k RTR
+ -t 15.100545825 -s 10 -d 6 -p DSR -e 56 -c 2 -a 0 -i 23 -k RTR 
- -t 15.100545825 -s 10 -d 6 -p DSR -e 56 -c 2 -a 0 -i 23 -k RTR
h -t 15.100545825 -s 10 -d 6 -p DSR -e 56 -c 2 -a 0 -i 23 -k RTR
+ -t 15.102292413 -s 0 -d 3 -p cbr -e 560 -c 2 -a 0 -i 0 -k RTR 
- -t 15.102292413 -s 0 -d 3 -p cbr -e 560 -c 2 -a 0 -i 0 -k RTR
h -t 15.102292413 -s 0 -d 3 -p cbr -e 560 -c 2 -a 0 -i 0 -k RTR
+ -t 15.102831080 -s 18 -d 16 -p DSR -e 68 -c 2 -a 0 -i 19 -k RTR 
- -t 15.102831080 -s 18 -d 16 -p DSR -e 68 -c 2 -a 0 -i 19 -k RTR
h -t 15.102831080 -s 18 -d 16 -p DSR -e 68 -c 2 -a 0 -i 19 -k RTR
+ -t 15.102960030 -s 7 -d -1 -p DSR -e 68 -c 2 -a 0 -i 10 -k RTR 
- -t 15.102960030 -s 7 -d -1 -p DSR -e 68 -c 2 -a 0 -i 10 -k RTR
h -t 15.102960030 -s 7 -d -1 -p DSR -e 68 -c 2 -a 0 -i 10 -k RTR
+ -t 15.103357051 -s 18 -d 20 -p DSR -e 68 -c 2 -a 0 -i 18 -k RTR 
- -t 15.103357051 -s 18 -d 20 -p DSR -e 68 -c 2 -a 0 -i 18 -k RTR
h -t 15.103357051 -s 18 -d 20 -p DSR -e 68 -c 2 -a 0 -i 18 -k RTR
+ -t 15.104508158 -s 22 -d 4 -p DSR -e 56 -c 2 -a 0 -i 24 -k RTR 
- -t 15.104508158 -s 22 -d 4 -p DSR -e 56 -c 2 -a 0 -i 24 -k RTR
h -t 15.104508158 -s 22 -d 4 -p DSR -e 56 -c 2 -a 0 -i 24 -k RTR
+ -t 15.104531817 -s 0 -d -1 -p cbr -e 512 -c 2 -a 0 -i 25 -k AGT 
- -t 15.104531817 -s 0 -d -1 -p cbr -e 512 -c 2 -a 0 -i 25 -k AGT
h -t 15.104531817 -s 0 -d -1 -p cbr -e 512 -c 2 -a 0 -i 25 -k AGT
+ -t 15.104531817 -s 0 -d 3 -p cbr -e 560 -c 2 -a 0 -i 25 -k RTR 
- -t 15.104531817 -s 0 -d 3 -p cbr -e 560 -c 2 -a 0 -i 25 -k RTR
h -t 15.104531817 -s 0 -d 3 -p cbr -e 560 -c 2 -a 0 -i 25 -k RTR
+ -t 15.105261036 -s 18 -d 14 -p DSR -e 68 -c 2 -a 0 -i 20 -k RTR 
- -t 15.105261036 -s 18 -d 14 -p DSR -e 68 -c 2 -a 0 -i 20 -k RTR
h -t 15.105261036 -s 18 -d 14 -p DSR -e 68 -c 2 -a 0 -i 20 -k RTR
+ -t 15.105738413 -s 13 -d 7 -p DSR -e 64 -c 2 -a 0 -i 26 -k RTR 
- -t 15.105738413 -s 13 -d 7 -p DSR -e 64 -c 2 -a 0 -i 26 -k RTR
h -t 15.105738413 -s 13 -d 7 -p DSR -e 64 -c 2 -a 0 -i 26 -k RTR
+ -t 15.105738491 -s 20 -d 7 -p DSR -e 64 -c 2 -a 0 -i 27 -k RTR 
- -t 15.105738491 -s 20 -d 7 -p DSR -e 64 -c 2 -a 0 -i 27 -k RTR
h -t 15.105738491 -s 20 -d 7 -p DSR -e 64 -c 2 -a 0 -i 27 -k RTR
+ -t 15.105738491 -s 11 -d 7 -p DSR -e 64 -c 2 -a 0 -i 28 -k RTR 
- -t 15.105738491 -s 11 -d 7 -p DSR -e 64 -c 2 -a 0 -i 28 -k RTR
h -t 15.105738491 -s 11 -d 7 -p DSR -e 64 -c 2 -a 0 -i 28 -k RTR
+ -t 15.106195200 -s 12 -d -1 -p DSR -e 68 -c 2 -a 0 -i 10 -k RTR 
- -t 15.106195200 -s 12 -d -1 -p DSR -e 68 -c 2 -a 0 -i 10 -k RTR
h -t 15.106195200 -s 12 -d -1 -p DSR -e 68 -c 2 -a 0 -i 10 -k RTR
+ -t 15.107482079 -s 4 -d 0 -p DSR -e 60 -c 2 -a 0 -i 11 -k RTR 
- -t 15.107482079 -s 4 -d 0 -p DSR -e 60 -c 2 -a 0 -i 11 -k RTR
h -t 15.107482079 -s 4 -d 0 -p DSR -e 60 -c 2 -a 0 -i 11 -k RTR
+ -t 15.110473934 -s 5 -d -1 -p DSR -e 68 -c 2 -a 0 -i 10 -k RTR 
- -t 15.110473934 -s 5 -d -1 -p DSR -e 68 -c 2 -a 0 -i 10 -k RTR
h -t 15.110473934 -s 5 -d -1 -p DSR -e 68 -c 2 -a 0 -i 10 -k RTR
+ -t 15.110685866 -s 19 -d 9 -p DSR -e 56 -c 2 -a 0 -i 29 -k RTR 
- -t 15.110685866 -s 19 -d 9 -p DSR -e 56 -c 2 -a 0 -i 29 -k RTR
h -t 15.110685866 -s 19 -d 9 -p DSR -e 56 -c 2 -a 0 -i 29 -k RTR
+ -t 15.111323226 -s 2 -d -1 -p DSR -e 68 -c 2 -a 0 -i 10 -k RTR 
- -t 15.111323226 -s 2 -d -1 -p DSR -e 68 -c 2 -a 0 -i 10 -k RTR
h -t 15.111323226 -s 2 -d -1 -p DSR -e 68 -c 2 -a 0 -i 10 -k RTR
+ -t 15.113878094 -s 8 -d -1 -p DSR -e 68 -c 2 -a 0 -i 10 -k RTR 
- -t 15.113878094 -s 8 -d -1 -p DSR -e 68 -c 2 -a 0 -i 10 -k RTR
h -t 15.113878094 -s 8 -d -1 -p DSR -e 68 -c 2 -a 0 -i 10 -k RTR
+ -t 15.114686299 -s 7 -d 6 -p DSR -e 64 -c 2 -a 0 -i 28 -k RTR 
- -t 15.114686299 -s 7 -d 6 -p DSR -e 64 -c 2 -a 0 -i 28 -k RTR
h -t 15.114686299 -s 7 -d 6 -p DSR -e 64 -c 2 -a 0 -i 28 -k RTR
+ -t 15.116782844 -s 6 -d 3 -p DSR -e 56 -c 2 -a 0 -i 22 -k RTR 
- -t 15.116782844 -s 6 -d 3 -p DSR -e 56 -c 2 -a 0 -i 22 -k RTR
h -t 15.116782844 -s 6 -d 3 -p DSR -e 56 -c 2 -a 0 -i 22 -k RTR
+ -t 15.118228256 -s 16 -d 12 -p DSR -e 64 -c 2 -a 0 -i 30 -k RTR 
- -t 15.118228256 -s 16 -d 12 -p DSR -e 64 -c 2 -a 0 -i 30 -k RTR
h -t 15.118228256 -s 16 -d 12 -p DSR -e 64 -c 2 -a 0 -i 30 -k RTR
+ -t 15.119775488 -s 15 -d -1 -p DSR -e 68 -c 2 -a 0 -i 10 -k RTR 
- -t 15.119775488 -s 15 -d -1 -p DSR -e 68 -c 2 -a 0 -i 10 -k RTR
h -t 15.119775488 -s 15 -d -1 -p DSR -e 68 -c 2 -a 0 -i 10 -k RTR
+ -t 15.120780218 -s 9 -d 3 -p DSR -e 56 -c 2 -a 0 -i 29 -k RTR 
- -t 15.120780218 -s 9 -d 3 -p DSR -e 56 -c 2 -a 0 -i 29 -k RTR
h -t 15.120780218 -s 9 -d 3 -p DSR -e 56 -c 2 -a 0 -i 29 -k RTR
+ -t 15.122820527 -s 6 -d 3 -p DSR -e 64 -c 2 -a 0 -i 28 -k RTR 
- -t 15.122820527 -s 6 -d 3 -p DSR -e 64 -c 2 -a 0 -i 28 -k RTR
h -t 15.122820527 -s 6 -d 3 -p DSR -e 64 -c 2 -a 0 -i 28 -k RTR
+ -t 15.126725175 -s 3 -d 6 -p cbr -e 556 -c 2 -a 0 -i 2 -k RTR 
- -t 15.126725175 -s 3 -d 6 -p cbr -e 556 -c 2 -a 0 -i 2 -k RTR
h -t 15.126725175 -s 3 -d 6 -p cbr -e 556 -c 2 -a 0 -i 2 -k RTR
+ -t 15.130469492 -s 7 -d 6 -p DSR -e 64 -c 2 -a 0 -i 27 -k RTR 
- -t 15.130469492 -s 7 -d 6 -p DSR -e 64 -c 2 -a 0 -i 27 -k RTR
h -t 15.130469492 -s 7 -d 6 -p DSR -e 64 -c 2 -a 0 -i 27 -k RTR
+ -t 15.131834825 -s 14 -d 8 -p DSR -e 64 -c 2 -a 0 -i 31 -k RTR 
- -t 15.131834825 -s 14 -d 8 -p DSR -e 64 -c 2 -a 0 -i 31 -k RTR
h -t 15.131834825 -s 14 -d 8 -p DSR -e 64 -c 2 -a 0 -i 31 -k RTR
+ -t 15.132747731 -s 3 -d -1 -p cbr -e 512 -c 2 -a 0 -i 32 -k AGT 
- -t 15.132747731 -s 3 -d -1 -p cbr -e 512 -c 2 -a 0 -i 32 -k AGT
h -t 15.132747731 -s 3 -d -1 -p cbr -e 512 -c 2 -a 0 -i 32 -k AGT
+ -t 15.132747731 -s 3 -d 6 -p cbr -e 556 -c 2 -a 0 -i 32 -k RTR 
- -t 15.132747731 -s 3 -d 6 -p cbr -e 556 -c 2 -a 0 -i 32 -k RTR
h -t 15.132747731 -s 3 -d 6 -p cbr -e 556 -c 2 -a 0 -i 32 -k RTR
+ -t 15.133730825 -s 8 -d 4 -p DSR -e 64 -c 2 -a 0 -i 31 -k RTR 
- -t 15.133730825 -s 8 -d 4 -p DSR -e 64 -c 2 -a 0 -i 31 -k RTR
h -t 15.133730825 -s 8 -d 4 -p DSR -e 64 -c 2 -a 0 -i 31 -k RTR
+ -t 15.135871102 -s 6 -d 3 -p DSR -e 64 -c 2 -a 0 -i 27 -k RTR 
- -t 15.135871102 -s 6 -d 3 -p DSR -e 64 -c 2 -a 0 -i 27 -k RTR
h -t 15.135871102 -s 6 -d 3 -p DSR -e 64 -c 2 -a 0 -i 27 -k RTR
+ -t 15.137838083 -s 6 -d 3 -p DSR -e 56 -c 2 -a 0 -i 23 -k RTR 
- -t 15.137838083 -s 6 -d 3 -p DSR -e 56 -c 2 -a 0 -i 23 -k RTR
h -t 15.137838083 -s 6 -d 3 -p DSR -e 56 -c 2 -a 0 -i 23 -k RTR
+ -t 15.152415750 -s 3 -d 9 -p cbr -e 560 -c 2 -a 0 -i 0 -k RTR 
- -t 15.152415750 -s 3 -d 9 -p cbr -e 560 -c 2 -a 0 -i 0 -k RTR
h -t 15.152415750 -s 3 -d 9 -p cbr -e 560 -c 2 -a 0 -i 0 -k RTR
+ -t 15.158413083 -s 3 -d 9 -p cbr -e 560 -c 2 -a 0 -i 25 -k RTR 
- -t 15.158413083 -s 3 -d 9 -p cbr -e 560 -c 2 -a 0 -i 25 -k RTR
h -t 15.158413083 -s 3 -d 9 -p cbr -e 560 -c 2 -a 0 -i 25 -k RTR
+ -t 15.164358083 -s 6 -d 21 -p cbr -e 556 -c 2 -a 0 -i 2 -k RTR 
- -t 15.164358083 -s 6 -d 21 -p cbr -e 556 -c 2 -a 0 -i 2 -k RTR
h -t 15.164358083 -s 6 -d 21 -p cbr -e 556 -c 2 -a 0 -i 2 -k RTR
+ -t 15.166749056 -s 0 -d -1 -p cbr -e 512 -c 2 -a 0 -i 33 -k AGT 
- -t 15.166749056 -s 0 -d -1 -p cbr -e 512 -c 2 -a 0 -i 33 -k AGT
h -t 15.166749056 -s 0 -d -1 -p cbr -e 512 -c 2 -a 0 -i 33 -k AGT
+ -t 15.166749056 -s 0 -d 4 -p cbr -e 556 -c 2 -a 0 -i 33 -k RTR 
- -t 15.166749056 -s 0 -d 4 -p cbr -e 556 -c 2 -a 0 -i 33 -k RTR
h -t 15.166749056 -s 0 -d 4 -p cbr -e 556 -c 2 -a 0 -i 33 -k RTR
+ -t 15.170323416 -s 6 -d 21 -p cbr -e 556 -c 2 -a 0 -i 32 -k RTR 
- -t 15.170323416 -s 6 -d 21 -p cbr -e 556 -c 2 -a 0 -i 32 -k RTR
h -t 15.170323416 -s 6 -d 21 -p cbr -e 556 -c 2 -a 0 -i 32 -k RTR
+ -t 15.176409652 -s 21 -d 18 -p cbr -e 556 -c 2 -a 0 -i 2 -k RTR 
- -t 15.176409652 -s 21 -d 18 -p cbr -e 556 -c 2 -a 0 -i 2 -k RTR
h -t 15.176409652 -s 21 -d 18 -p cbr -e 556 -c 2 -a 0 -i 2 -k RTR
+ -t 15.182316634 -s 21 -d 18 -p cbr -e 556 -c 2 -a 0 -i 32 -k RTR 
- -t 15.182316634 -s 21 -d 18 -p cbr -e 556 -c 2 -a 0 -i 32 -k RTR
h -t 15.182316634 -s 21 -d 18 -p cbr -e 556 -c 2 -a 0 -i 32 -k RTR
+ -t 15.184457326 -s 12 -d 6 -p DSR -e 64 -c 2 -a 0 -i 30 -k RTR 
- -t 15.184457326 -s 12 -d 6 -p DSR -e 64 -c 2 -a 0 -i 30 -k RTR
h -t 15.184457326 -s 12 -d 6 -p DSR -e 64 -c 2 -a 0 -i 30 -k RTR
r -t 15.190403896 -s 18 -d 18 -p cbr -e 512 -c 2 -a 0 -i 2 -k AGT
r -t 15.196330877 -s 18 -d 18 -p cbr -e 512 -c 2 -a 0 -i 32 -k AGT
+ -t 15.198277780 -s 4 -d 3 -p DSR -e 56 -c 2 -a 0 -i 24 -k RTR 
- -t 15.198277780 -s 4 -d 3 -p DSR -e 56 -c 2 -a 0 -i 24 -k RTR
h -t 15.198277780 -s 4 -d 3 -p DSR -e 56 -c 2 -a 0 -i 24 -k RTR
+ -t 15.200288761 -s 4 -d 3 -p DSR -e 64 -c 2 -a 0 -i 31 -k RTR 
- -t 15.200288761 -s 4 -d 3 -p DSR -e 64 -c 2 -a 0 -i 31 -k RTR
h -t 15.200288761 -s 4 -d 3 -p DSR -e 64 -c 2 -a 0 -i 31 -k RTR
+ -t 15.201264408 -s 7 -d -1 -p cbr -e 512 -c 2 -a 0 -i 34 -k AGT 
- -t 15.201264408 -s 7 -d -1 -p cbr -e 512 -c 2 -a 0 -i 34 -k AGT
h -t 15.201264408 -s 7 -d -1 -p cbr -e 512 -c 2 -a 0 -i 34 -k AGT
+ -t 15.201264408 -s 7 -d 11 -p cbr -e 548 -c 2 -a 0 -i 34 -k RTR 
- -t 15.201264408 -s 7 -d 11 -p cbr -e 548 -c 2 -a 0 -i 34 -k RTR
h -t 15.201264408 -s 7 -d 11 -p cbr -e 548 -c 2 -a 0 -i 34 -k RTR
+ -t 15.208172761 -s 9 -d 19 -p cbr -e 560 -c 2 -a 0 -i 0 -k RTR 
- -t 15.208172761 -s 9 -d 19 -p cbr -e 560 -c 2 -a 0 -i 0 -k RTR
h -t 15.208172761 -s 9 -d 19 -p cbr -e 560 -c 2 -a 0 -i 0 -k RTR
+ -t 15.214151428 -s 9 -d 19 -p cbr -e 560 -c 2 -a 0 -i 25 -k RTR 
- -t 15.214151428 -s 9 -d 19 -p cbr -e 560 -c 2 -a 0 -i 25 -k RTR
h -t 15.214151428 -s 9 -d 19 -p cbr -e 560 -c 2 -a 0 -i 25 -k RTR
+ -t 15.217382840 -s 7 -d 6 -p DSR -e 64 -c 2 -a 0 -i 26 -k RTR 
- -t 15.217382840 -s 7 -d 6 -p DSR -e 64 -c 2 -a 0 -i 26 -k RTR
h -t 15.217382840 -s 7 -d 6 -p DSR -e 64 -c 2 -a 0 -i 26 -k RTR
+ -t 15.223561821 -s 19 -d 18 -p cbr -e 560 -c 2 -a 0 -i 0 -k RTR 
- -t 15.223561821 -s 19 -d 18 -p cbr -e 560 -c 2 -a 0 -i 0 -k RTR
h -t 15.223561821 -s 19 -d 18 -p cbr -e 560 -c 2 -a 0 -i 0 -k RTR
+ -t 15.224405878 -s 3 -d -1 -p cbr -e 512 -c 2 -a 0 -i 35 -k AGT 
- -t 15.224405878 -s 3 -d -1 -p cbr -e 512 -c 2 -a 0 -i 35 -k AGT
h -t 15.224405878 -s 3 -d -1 -p cbr -e 512 -c 2 -a 0 -i 35 -k AGT
+ -t 15.224405878 -s 3 -d 6 -p cbr -e 556 -c 2 -a 0 -i 35 -k RTR 
- -t 15.224405878 -s 3 -d 6 -p cbr -e 556 -c 2 -a 0 -i 35 -k RTR
h -t 15.224405878 -s 3 -d 6 -p cbr -e 556 -c 2 -a 0 -i 35 -k RTR
+ -t 15.229620803 -s 19 -d 18 -p cbr -e 560 -c 2 -a 0 -i 25 -k RTR 
- -t 15.229620803 -s 19 -d 18 -p cbr -e 560 -c 2 -a 0 -i 25 -k RTR
h -t 15.229620803 -s 19 -d 18 -p cbr -e 560 -c 2 -a 0 -i 25 -k RTR
r -t 15.235638803 -s 18 -d 18 -p cbr -e 512 -c 2 -a 0 -i 0 -k AGT
+ -t 15.241636072 -s 4 -d 10 -p cbr -e 556 -c 2 -a 0 -i 33 -k RTR 
- -t 15.241636072 -s 4 -d 10 -p cbr -e 556 -c 2 -a 0 -i 33 -k RTR
h -t 15.241636072 -s 4 -d 10 -p cbr -e 556 -c 2 -a 0 -i 33 -k RTR
+ -t 15.249652739 -s 10 -d 18 -p cbr -e 556 -c 2 -a 0 -i 33 -k RTR 
- -t 15.249652739 -s 10 -d 18 -p cbr -e 556 -c 2 -a 0 -i 33 -k RTR
h -t 15.249652739 -s 10 -d 18 -p cbr -e 556 -c 2 -a 0 -i 33 -k RTR
+ -t 15.251693274 -s 6 -d 3 -p DSR -e 64 -c 2 -a 0 -i 30 -k RTR 
- -t 15.251693274 -s 6 -d 3 -p DSR -e 64 -c 2 -a 0 -i 30 -k RTR
h -t 15.251693274 -s 6 -d 3 -p DSR -e 64 -c 2 -a 0 -i 30 -k RTR
r -t 15.257685786 -s 11 -d 11 -p cbr -e 512 -c 2 -a 0 -i 34 -k AGT
r -t 15.263712689 -s 18 -d 18 -p cbr -e 512 -c 2 -a 0 -i 33 -k AGT
+ -t 15.265808210 -s 7 -d -1 -p cbr -e 512 -c 2 -a 0 -i 36 -k AGT 
- -t 15.265808210 -s 7 -d -1 -p cbr -e 512 -c 2 -a 0 -i 36 -k AGT
h -t 15.265808210 -s 7 -d -1 -p cbr -e 512 -c 2 -a 0 -i 36 -k AGT
+ -t 15.265808210 -s 7 -d 11 -p cbr -e 532 -c 2 -a 0 -i 36 -k RTR 
- -t 15.265808210 -s 7 -d 11 -p cbr -e 532 -c 2 -a 0 -i 36 -k RTR
h -t 15.265808210 -s 7 -d 11 -p cbr -e 532 -c 2 -a 0 -i 36 -k RTR
r -t 15.269851355 -s 18 -d 18 -p cbr -e 512 -c 2 -a 0 -i 25 -k AGT
+ -t 15.274276515 -s 6 -d 3 -p DSR -e 64 -c 2 -a 0 -i 26 -k RTR 
- -t 15.274276515 -s 6 -d 3 -p DSR -e 64 -c 2 -a 0 -i 26 -k RTR
h -t 15.274276515 -s 6 -d 3 -p DSR -e 64 -c 2 -a 0 -i 26 -k RTR
+ -t 15.280341848 -s 6 -d 21 -p cbr -e 556 -c 2 -a 0 -i 35 -k RTR 
- -t 15.280341848 -s 6 -d 21 -p cbr -e 556 -c 2 -a 0 -i 35 -k RTR
h -t 15.280341848 -s 6 -d 21 -p cbr -e 556 -c 2 -a 0 -i 35 -k RTR
r -t 15.288265830 -s 11 -d 11 -p cbr -e 512 -c 2 -a 0 -i 36 -k AGT
+ -t 15.290701874 -s 0 -d -1 -p cbr -e 512 -c 2 -a 0 -i 37 -k AGT 
- -t 15.290701874 -s 0 -d -1 -p cbr -e 512 -c 2 -a 0 -i 37 -k AGT
h -t 15.290701874 -s 0 -d -1 -p cbr -e 512 -c 2 -a 0 -i 37 -k AGT
+ -t 15.290701874 -s 0 -d 4 -p cbr -e 556 -c 2 -a 0 -i 37 -k RTR 
- -t 15.290701874 -s 0 -d 4 -p cbr -e 556 -c 2 -a 0 -i 37 -k RTR
h -t 15.290701874 -s 0 -d 4 -p cbr -e 556 -c 2 -a 0 -i 37 -k RTR
+ -t 15.294617440 -s 21 -d 18 -p cbr -e 556 -c 2 -a 0 -i 35 -k RTR 
- -t 15.294617440 -s 21 -d 18 -p cbr -e 556 -c 2 -a 0 -i 35 -k RTR
h -t 15.294617440 -s 21 -d 18 -p cbr -e 556 -c 2 -a 0 -i 35 -k RTR
r -t 15.301123676 -s 18 -d 18 -p cbr -e 512 -c 2 -a 0 -i 35 -k AGT
+ -t 15.307260541 -s 4 -d 10 -p cbr -e 556 -c 2 -a 0 -i 37 -k RTR 
- -t 15.307260541 -s 4 -d 10 -p cbr -e 556 -c 2 -a 0 -i 37 -k RTR
h -t 15.307260541 -s 4 -d 10 -p cbr -e 556 -c 2 -a 0 -i 37 -k RTR
+ -t 15.313326541 -s 10 -d 18 -p cbr -e 556 -c 2 -a 0 -i 37 -k RTR 
- -t 15.313326541 -s 10 -d 18 -p cbr -e 556 -c 2 -a 0 -i 37 -k RTR
h -t 15.313326541 -s 10 -d 18 -p cbr -e 556 -c 2 -a 0 -i 37 -k RTR
r -t 15.319712777 -s 18 -d 18 -p cbr -e 512 -c 2 -a 0 -i 37 -k AGT
+ -t 15.322195014 -s 11 -d 7 -p DSR -e 68 -c 2 -a 0 -i 17 -k RTR 
- -t 15.322195014 -s 11 -d 7 -p DSR -e 68 -c 2 -a 0 -i 17 -k RTR
h -t 15.322195014 -s 11 -d 7 -p DSR -e 68 -c 2 -a 0 -i 17 -k RTR
+ -t 15.324517250 -s 7 -d 3 -p DSR -e 68 -c 2 -a 0 -i 17 -k RTR 
- -t 15.324517250 -s 7 -d 3 -p DSR -e 68 -c 2 -a 0 -i 17 -k RTR
h -t 15.324517250 -s 7 -d 3 -p DSR -e 68 -c 2 -a 0 -i 17 -k RTR
+ -t 15.327003718 -s 14 -d 10 -p DSR -e 68 -c 2 -a 0 -i 20 -k RTR 
- -t 15.327003718 -s 14 -d 10 -p DSR -e 68 -c 2 -a 0 -i 20 -k RTR
h -t 15.327003718 -s 14 -d 10 -p DSR -e 68 -c 2 -a 0 -i 20 -k RTR
+ -t 15.329029800 -s 7 -d -1 -p cbr -e 512 -c 2 -a 0 -i 38 -k AGT 
- -t 15.329029800 -s 7 -d -1 -p cbr -e 512 -c 2 -a 0 -i 38 -k AGT
h -t 15.329029800 -s 7 -d -1 -p cbr -e 512 -c 2 -a 0 -i 38 -k AGT
+ -t 15.329029800 -s 7 -d 11 -p cbr -e 532 -c 2 -a 0 -i 38 -k RTR 
- -t 15.329029800 -s 7 -d 11 -p cbr -e 532 -c 2 -a 0 -i 38 -k RTR
h -t 15.329029800 -s 7 -d 11 -p cbr -e 532 -c 2 -a 0 -i 38 -k RTR
+ -t 15.329065954 -s 10 -d 4 -p DSR -e 68 -c 2 -a 0 -i 20 -k RTR 
- -t 15.329065954 -s 10 -d 4 -p DSR -e 68 -c 2 -a 0 -i 20 -k RTR
h -t 15.329065954 -s 10 -d 4 -p DSR -e 68 -c 2 -a 0 -i 20 -k RTR
+ -t 15.331218387 -s 3 -d 0 -p DSR -e 68 -c 2 -a 0 -i 17 -k RTR 
- -t 15.331218387 -s 3 -d 0 -p DSR -e 68 -c 2 -a 0 -i 17 -k RTR
h -t 15.331218387 -s 3 -d 0 -p DSR -e 68 -c 2 -a 0 -i 17 -k RTR
+ -t 15.335731721 -s 20 -d 7 -p DSR -e 68 -c 2 -a 0 -i 18 -k RTR 
- -t 15.335731721 -s 20 -d 7 -p DSR -e 68 -c 2 -a 0 -i 18 -k RTR
h -t 15.335731721 -s 20 -d 7 -p DSR -e 68 -c 2 -a 0 -i 18 -k RTR
+ -t 15.337754192 -s 4 -d 0 -p DSR -e 68 -c 2 -a 0 -i 20 -k RTR 
- -t 15.337754192 -s 4 -d 0 -p DSR -e 68 -c 2 -a 0 -i 20 -k RTR
h -t 15.337754192 -s 4 -d 0 -p DSR -e 68 -c 2 -a 0 -i 20 -k RTR
+ -t 15.342288057 -s 16 -d 10 -p DSR -e 68 -c 2 -a 0 -i 19 -k RTR 
- -t 15.342288057 -s 16 -d 10 -p DSR -e 68 -c 2 -a 0 -i 19 -k RTR
h -t 15.342288057 -s 16 -d 10 -p DSR -e 68 -c 2 -a 0 -i 19 -k RTR
+ -t 15.344975649 -s 0 -d -1 -p cbr -e 512 -c 2 -a 0 -i 39 -k AGT 
- -t 15.344975649 -s 0 -d -1 -p cbr -e 512 -c 2 -a 0 -i 39 -k AGT
h -t 15.344975649 -s 0 -d -1 -p cbr -e 512 -c 2 -a 0 -i 39 -k AGT
+ -t 15.344975649 -s 0 -d 4 -p cbr -e 556 -c 2 -a 0 -i 39 -k RTR 
- -t 15.344975649 -s 0 -d 4 -p cbr -e 556 -c 2 -a 0 -i 39 -k RTR
h -t 15.344975649 -s 0 -d 4 -p cbr -e 556 -c 2 -a 0 -i 39 -k RTR
r -t 15.348969681 -s 11 -d 11 -p cbr -e 512 -c 2 -a 0 -i 38 -k AGT
+ -t 15.351272388 -s 7 -d 3 -p DSR -e 68 -c 2 -a 0 -i 18 -k RTR 
- -t 15.351272388 -s 7 -d 3 -p DSR -e 68 -c 2 -a 0 -i 18 -k RTR
h -t 15.351272388 -s 7 -d 3 -p DSR -e 68 -c 2 -a 0 -i 18 -k RTR
+ -t 15.351600041 -s 3 -d -1 -p cbr -e 512 -c 2 -a 0 -i 40 -k AGT 
- -t 15.351600041 -s 3 -d -1 -p cbr -e 512 -c 2 -a 0 -i 40 -k AGT
h -t 15.351600041 -s 3 -d -1 -p cbr -e 512 -c 2 -a 0 -i 40 -k AGT
+ -t 15.351600041 -s 3 -d 6 -p cbr -e 532 -c 2 -a 0 -i 40 -k RTR 
- -t 15.351600041 -s 3 -d 6 -p cbr -e 532 -c 2 -a 0 -i 40 -k RTR
h -t 15.351600041 -s 3 -d 6 -p cbr -e 532 -c 2 -a 0 -i 40 -k RTR
+ -t 15.353414624 -s 3 -d 0 -p DSR -e 68 -c 2 -a 0 -i 18 -k RTR 
- -t 15.353414624 -s 3 -d 0 -p DSR -e 68 -c 2 -a 0 -i 18 -k RTR
h -t 15.353414624 -s 3 -d 0 -p DSR -e 68 -c 2 -a 0 -i 18 -k RTR
+ -t 15.359567624 -s 6 -d 21 -p cbr -e 532 -c 2 -a 0 -i 40 -k RTR 
- -t 15.359567624 -s 6 -d 21 -p cbr -e 532 -c 2 -a 0 -i 40 -k RTR
h -t 15.359567624 -s 6 -d 21 -p cbr -e 532 -c 2 -a 0 -i 40 -k RTR
+ -t 15.365514527 -s 4 -d 10 -p cbr -e 556 -c 2 -a 0 -i 39 -k RTR 
- -t 15.365514527 -s 4 -d 10 -p cbr -e 556 -c 2 -a 0 -i 39 -k RTR
h -t 15.365514527 -s 4 -d 10 -p cbr -e 556 -c 2 -a 0 -i 39 -k RTR
+ -t 15.373542939 -s 10 -d 18 -p cbr -e 556 -c 2 -a 0 -i 39 -k RTR 
- -t 15.373542939 -s 10 -d 18 -p cbr -e 556 -c 2 -a 0 -i 39 -k RTR
h -t 15.373542939 -s 10 -d 18 -p cbr -e 556 -c 2 -a 0 -i 39 -k RTR
+ -t 15.379477920 -s 21 -d 18 -p cbr -e 532 -c 2 -a 0 -i 40 -k RTR 
- -t 15.379477920 -s 21 -d 18 -p cbr -e 532 -c 2 -a 0 -i 40 -k RTR
h -t 15.379477920 -s 21 -d 18 -p cbr -e 532 -c 2 -a 0 -i 40 -k RTR
r -t 15.385424628 -s 18 -d 18 -p cbr -e 512 -c 2 -a 0 -i 39 -k AGT
r -t 15.391679609 -s 18 -d 18 -p cbr -e 512 -c 2 -a 0 -i 40 -k AGT
+ -t 15.393741943 -s 10 -d 4 -p DSR -e 68 -c 2 -a 0 -i 19 -k RTR 
- -t 15.393741943 -s 10 -d 4 -p DSR -e 68 -c 2 -a 0 -i 19 -k RTR
h -t 15.393741943 -s 10 -d 4 -p DSR -e 68 -c 2 -a 0 -i 19 -k RTR
+ -t 15.396343943 -s 4 -d 0 -p DSR -e 68 -c 2 -a 0 -i 19 -k RTR 
- -t 15.396343943 -s 4 -d 0 -p DSR -e 68 -c 2 -a 0 -i 19 -k RTR
h -t 15.396343943 -s 4 -d 0 -p DSR -e 68 -c 2 -a 0 -i 19 -k RTR
+ -t 15.401154808 -s 22 -d 4 -p DSR -e 60 -c 2 -a 0 -i 15 -k RTR 
- -t 15.401154808 -s 22 -d 4 -p DSR -e 60 -c 2 -a 0 -i 15 -k RTR
h -t 15.401154808 -s 22 -d 4 -p DSR -e 60 -c 2 -a 0 -i 15 -k RTR
+ -t 15.403156889 -s 13 -d 9 -p DSR -e 68 -c 2 -a 0 -i 13 -k RTR 
- -t 15.403156889 -s 13 -d 9 -p DSR -e 68 -c 2 -a 0 -i 13 -k RTR
h -t 15.403156889 -s 13 -d 9 -p DSR -e 68 -c 2 -a 0 -i 13 -k RTR
+ -t 15.405379596 -s 21 -d 9 -p DSR -e 68 -c 2 -a 0 -i 14 -k RTR 
- -t 15.405379596 -s 21 -d 9 -p DSR -e 68 -c 2 -a 0 -i 14 -k RTR
h -t 15.405379596 -s 21 -d 9 -p DSR -e 68 -c 2 -a 0 -i 14 -k RTR
+ -t 15.407402166 -s 9 -d 3 -p DSR -e 68 -c 2 -a 0 -i 13 -k RTR 
- -t 15.407402166 -s 9 -d 3 -p DSR -e 68 -c 2 -a 0 -i 13 -k RTR
h -t 15.407402166 -s 9 -d 3 -p DSR -e 68 -c 2 -a 0 -i 13 -k RTR
+ -t 15.409464051 -s 9 -d 3 -p DSR -e 68 -c 2 -a 0 -i 14 -k RTR 
- -t 15.409464051 -s 9 -d 3 -p DSR -e 68 -c 2 -a 0 -i 14 -k RTR
h -t 15.409464051 -s 9 -d 3 -p DSR -e 68 -c 2 -a 0 -i 14 -k RTR
+ -t 15.411586051 -s 3 -d 0 -p DSR -e 68 -c 2 -a 0 -i 13 -k RTR 
- -t 15.411586051 -s 3 -d 0 -p DSR -e 68 -c 2 -a 0 -i 13 -k RTR