n -t * -s 0  -x 100 -y 0 -Z 0 -z 30  -v circle -c black
n -t * -s 1  -x 300 -y 0 -Z 0 -z 30  -v circle -c black
n -t * -s 2  -x 500 -y 0 -Z 0 -z 30  -v circle -c black
n -t * -s 3  -x 100 -y 100 -Z 0 -z 30  -v circle -c black
n -t * -s 4  -x 300 -y 100 -Z 0 -z 30  -v circle -c black
n -t * -s 5  -x 500 -y 100 -Z 0 -z 30  -v circle -c black
n -t * -s 6  -x 100 -y 200 -Z 0 -z 30  -v circle -c black
n -t * -s 7  -x 300 -y 200 -Z 0 -z 30  -v circle -c black
n -t * -s 8  -x 500 -y 200 -Z 0 -z 30  -v circle -c black
n -t * -s 9  -x 100 -y 300 -Z 0 -z 30  -v circle -c black
n -t * -s 10  -x 300 -y 300 -Z 0 -z 30  -v circle -c black
n -t * -s 11  -x 500 -y 300 -Z 0 -z 30  -v circle -c black
n -t * -s 12  -x 100 -y 400 -Z 0 -z 30  -v circle -c black
n -t * -s 13  -x 300 -y 400 -Z 0 -z 30  -v circle -c black
n -t * -s 14  -x 500 -y 400 -Z 0 -z 30  -v circle -c black
n -t * -s 15  -x 100 -y 500 -Z 0 -z 30  -v circle -c black
n -t * -s 16  -x 300 -y 500 -Z 0 -z 30  -v circle -c black
n -t * -s 17  -x 500 -y 500 -Z 0 -z 30  -v circle -c black
n -t * -s 18  -x 400 -y 500 -Z 0 -z 30  -v circle -c black
n -t * -s 19  -x 200 -y 500 -Z 0 -z 30  -v circle -c black
n -t * -s 20  -x 400 -y 400 -Z 0 -z 30  -v circle -c black
n -t * -s 21  -x 200 -y 400 -Z 0 -z 30  -v circle -c black
n -t * -s 22  -x 400 -y 300 -Z 0 -z 30  -v circle -c black
n -t * -s 23  -x 200 -y 300 -Z 0 -z 30  -v circle -c black
n -t * -s 24  -x 400 -y 200 -Z 0 -z 30  -v circle -c black
n -t * -s 25  -x 200 -y 200 -Z 0 -z 30  -v circle -c black
n -t * -s 26  -x 400 -y 100 -Z 0 -z 30  -v circle -c black
n -t * -s 27  -x 200 -y 100 -Z 0 -z 30  -v circle -c black
n -t * -s 28  -x 400 -y 0 -Z 0 -z 30  -v circle -c black
V -t * -v 1.0a5 -a 0
W -t * -x 500 -y 500
A -t * -n 1 -p 0 -o 0xffffffff -c 31 -a 1
A -t * -h 1 -m 2147483647 -s 0
+ -t 15.000000000 -s 0 -d -1 -p tcp -e 40 -c 2 -a 0 -i 0 -k AGT 
- -t 15.000000000 -s 0 -d -1 -p tcp -e 40 -c 2 -a 0 -i 0 -k AGT
h -t 15.000000000 -s 0 -d -1 -p tcp -e 40 -c 2 -a 0 -i 0 -k AGT
+ -t 15.002342658 -s 0 -d -1 -p DSR -e 32 -c 2 -a 0 -i 1 -k RTR 
- -t 15.002342658 -s 0 -d -1 -p DSR -e 32 -c 2 -a 0 -i 1 -k RTR
h -t 15.002342658 -s 0 -d -1 -p DSR -e 32 -c 2 -a 0 -i 1 -k RTR
+ -t 15.050841065 -s 0 -d -1 -p DSR -e 32 -c 2 -a 0 -i 2 -k RTR 
- -t 15.050841065 -s 0 -d -1 -p DSR -e 32 -c 2 -a 0 -i 2 -k RTR
h -t 15.050841065 -s 0 -d -1 -p DSR -e 32 -c 2 -a 0 -i 2 -k RTR
+ -t 15.052641284 -s 3 -d -1 -p DSR -e 48 -c 2 -a 0 -i 2 -k RTR 
- -t 15.052641284 -s 3 -d -1 -p DSR -e 48 -c 2 -a 0 -i 2 -k RTR
h -t 15.052641284 -s 3 -d -1 -p DSR -e 48 -c 2 -a 0 -i 2 -k RTR
+ -t 15.054552798 -s 6 -d -1 -p DSR -e 48 -c 2 -a 0 -i 2 -k RTR 
- -t 15.054552798 -s 6 -d -1 -p DSR -e 48 -c 2 -a 0 -i 2 -k RTR
h -t 15.054552798 -s 6 -d -1 -p DSR -e 48 -c 2 -a 0 -i 2 -k RTR
+ -t 15.054677064 -s 23 -d -1 -p DSR -e 68 -c 2 -a 0 -i 2 -k RTR 
- -t 15.054677064 -s 23 -d -1 -p DSR -e 68 -c 2 -a 0 -i 2 -k RTR
h -t 15.054677064 -s 23 -d -1 -p DSR -e 68 -c 2 -a 0 -i 2 -k RTR
+ -t 15.057507411 -s 12 -d -1 -p DSR -e 68 -c 2 -a 0 -i 2 -k RTR 
- -t 15.057507411 -s 12 -d -1 -p DSR -e 68 -c 2 -a 0 -i 2 -k RTR
h -t 15.057507411 -s 12 -d -1 -p DSR -e 68 -c 2 -a 0 -i 2 -k RTR
+ -t 15.057508211 -s 19 -d -1 -p DSR -e 92 -c 2 -a 0 -i 2 -k RTR 
- -t 15.057508211 -s 19 -d -1 -p DSR -e 92 -c 2 -a 0 -i 2 -k RTR
h -t 15.057508211 -s 19 -d -1 -p DSR -e 92 -c 2 -a 0 -i 2 -k RTR
+ -t 15.058243575 -s 22 -d -1 -p DSR -e 92 -c 2 -a 0 -i 2 -k RTR 
- -t 15.058243575 -s 22 -d -1 -p DSR -e 92 -c 2 -a 0 -i 2 -k RTR
h -t 15.058243575 -s 22 -d -1 -p DSR -e 92 -c 2 -a 0 -i 2 -k RTR
+ -t 15.058529492 -s 21 -d -1 -p DSR -e 68 -c 2 -a 0 -i 2 -k RTR 
- -t 15.058529492 -s 21 -d -1 -p DSR -e 68 -c 2 -a 0 -i 2 -k RTR
h -t 15.058529492 -s 21 -d -1 -p DSR -e 68 -c 2 -a 0 -i 2 -k RTR
+ -t 15.059301382 -s 25 -d -1 -p DSR -e 48 -c 2 -a 0 -i 2 -k RTR 
- -t 15.059301382 -s 25 -d -1 -p DSR -e 48 -c 2 -a 0 -i 2 -k RTR
h -t 15.059301382 -s 25 -d -1 -p DSR -e 48 -c 2 -a 0 -i 2 -k RTR
+ -t 15.059608801 -s 13 -d -1 -p DSR -e 92 -c 2 -a 0 -i 2 -k RTR 
- -t 15.059608801 -s 13 -d -1 -p DSR -e 92 -c 2 -a 0 -i 2 -k RTR
h -t 15.059608801 -s 13 -d -1 -p DSR -e 92 -c 2 -a 0 -i 2 -k RTR
+ -t 15.059874143 -s 27 -d -1 -p DSR -e 48 -c 2 -a 0 -i 2 -k RTR 
- -t 15.059874143 -s 27 -d -1 -p DSR -e 48 -c 2 -a 0 -i 2 -k RTR
h -t 15.059874143 -s 27 -d -1 -p DSR -e 48 -c 2 -a 0 -i 2 -k RTR
+ -t 15.060338769 -s 7 -d -1 -p DSR -e 68 -c 2 -a 0 -i 2 -k RTR 
- -t 15.060338769 -s 7 -d -1 -p DSR -e 68 -c 2 -a 0 -i 2 -k RTR
h -t 15.060338769 -s 7 -d -1 -p DSR -e 68 -c 2 -a 0 -i 2 -k RTR
+ -t 15.060345301 -s 24 -d -1 -p DSR -e 92 -c 2 -a 0 -i 2 -k RTR 
- -t 15.060345301 -s 24 -d -1 -p DSR -e 92 -c 2 -a 0 -i 2 -k RTR
h -t 15.060345301 -s 24 -d -1 -p DSR -e 92 -c 2 -a 0 -i 2 -k RTR
+ -t 15.060348965 -s 18 -d -1 -p DSR -e 120 -c 2 -a 0 -i 2 -k RTR 
- -t 15.060348965 -s 18 -d -1 -p DSR -e 120 -c 2 -a 0 -i 2 -k RTR
h -t 15.060348965 -s 18 -d -1 -p DSR -e 120 -c 2 -a 0 -i 2 -k RTR
+ -t 15.060391243 -s 9 -d -1 -p DSR -e 68 -c 2 -a 0 -i 2 -k RTR 
- -t 15.060391243 -s 9 -d -1 -p DSR -e 68 -c 2 -a 0 -i 2 -k RTR
h -t 15.060391243 -s 9 -d -1 -p DSR -e 68 -c 2 -a 0 -i 2 -k RTR
+ -t 15.060470256 -s 10 -d -1 -p DSR -e 68 -c 2 -a 0 -i 2 -k RTR 
- -t 15.060470256 -s 10 -d -1 -p DSR -e 68 -c 2 -a 0 -i 2 -k RTR
h -t 15.060470256 -s 10 -d -1 -p DSR -e 68 -c 2 -a 0 -i 2 -k RTR
+ -t 15.060655206 -s 1 -d -1 -p DSR -e 48 -c 2 -a 0 -i 2 -k RTR 
- -t 15.060655206 -s 1 -d -1 -p DSR -e 48 -c 2 -a 0 -i 2 -k RTR
h -t 15.060655206 -s 1 -d -1 -p DSR -e 48 -c 2 -a 0 -i 2 -k RTR
+ -t 15.060813834 -s 4 -d -1 -p DSR -e 48 -c 2 -a 0 -i 2 -k RTR 
- -t 15.060813834 -s 4 -d -1 -p DSR -e 48 -c 2 -a 0 -i 2 -k RTR
h -t 15.060813834 -s 4 -d -1 -p DSR -e 48 -c 2 -a 0 -i 2 -k RTR
+ -t 15.061916681 -s 15 -d -1 -p DSR -e 92 -c 2 -a 0 -i 2 -k RTR 
- -t 15.061916681 -s 15 -d -1 -p DSR -e 92 -c 2 -a 0 -i 2 -k RTR
h -t 15.061916681 -s 15 -d -1 -p DSR -e 92 -c 2 -a 0 -i 2 -k RTR
+ -t 15.062140538 -s 16 -d 12 -p DSR -e 60 -c 2 -a 0 -i 4 -k RTR 
- -t 15.062140538 -s 16 -d 12 -p DSR -e 60 -c 2 -a 0 -i 4 -k RTR
h -t 15.062140538 -s 16 -d 12 -p DSR -e 60 -c 2 -a 0 -i 4 -k RTR
+ -t 15.062695905 -s 16 -d 23 -p DSR -e 60 -c 2 -a 0 -i 3 -k RTR 
- -t 15.062695905 -s 16 -d 23 -p DSR -e 60 -c 2 -a 0 -i 3 -k RTR
h -t 15.062695905 -s 16 -d 23 -p DSR -e 60 -c 2 -a 0 -i 3 -k RTR
+ -t 15.062797201 -s 11 -d -1 -p DSR -e 120 -c 2 -a 0 -i 2 -k RTR 
- -t 15.062797201 -s 11 -d -1 -p DSR -e 120 -c 2 -a 0 -i 2 -k RTR
h -t 15.062797201 -s 11 -d -1 -p DSR -e 120 -c 2 -a 0 -i 2 -k RTR
+ -t 15.065748986 -s 20 -d -1 -p DSR -e 92 -c 2 -a 0 -i 2 -k RTR 
- -t 15.065748986 -s 20 -d -1 -p DSR -e 92 -c 2 -a 0 -i 2 -k RTR
h -t 15.065748986 -s 20 -d -1 -p DSR -e 92 -c 2 -a 0 -i 2 -k RTR
+ -t 15.066116686 -s 16 -d 15 -p DSR -e 68 -c 2 -a 0 -i 7 -k RTR 
- -t 15.066116686 -s 16 -d 15 -p DSR -e 68 -c 2 -a 0 -i 7 -k RTR
h -t 15.066116686 -s 16 -d 15 -p DSR -e 68 -c 2 -a 0 -i 7 -k RTR
+ -t 15.066498737 -s 16 -d 19 -p DSR -e 68 -c 2 -a 0 -i 5 -k RTR 
- -t 15.066498737 -s 16 -d 19 -p DSR -e 68 -c 2 -a 0 -i 5 -k RTR
h -t 15.066498737 -s 16 -d 19 -p DSR -e 68 -c 2 -a 0 -i 5 -k RTR
+ -t 15.066937483 -s 16 -d 13 -p DSR -e 68 -c 2 -a 0 -i 6 -k RTR 
- -t 15.066937483 -s 16 -d 13 -p DSR -e 68 -c 2 -a 0 -i 6 -k RTR
h -t 15.066937483 -s 16 -d 13 -p DSR -e 68 -c 2 -a 0 -i 6 -k RTR
+ -t 15.067440531 -s 16 -d 21 -p DSR -e 60 -c 2 -a 0 -i 8 -k RTR 
- -t 15.067440531 -s 16 -d 21 -p DSR -e 60 -c 2 -a 0 -i 8 -k RTR
h -t 15.067440531 -s 16 -d 21 -p DSR -e 60 -c 2 -a 0 -i 8 -k RTR
+ -t 15.067470932 -s 26 -d -1 -p DSR -e 68 -c 2 -a 0 -i 2 -k RTR 
- -t 15.067470932 -s 26 -d -1 -p DSR -e 68 -c 2 -a 0 -i 2 -k RTR
h -t 15.067470932 -s 26 -d -1 -p DSR -e 68 -c 2 -a 0 -i 2 -k RTR
+ -t 15.067959884 -s 17 -d -1 -p DSR -e 120 -c 2 -a 0 -i 2 -k RTR 
- -t 15.067959884 -s 17 -d -1 -p DSR -e 120 -c 2 -a 0 -i 2 -k RTR
h -t 15.067959884 -s 17 -d -1 -p DSR -e 120 -c 2 -a 0 -i 2 -k RTR
+ -t 15.069842410 -s 5 -d -1 -p DSR -e 92 -c 2 -a 0 -i 2 -k RTR 
- -t 15.069842410 -s 5 -d -1 -p DSR -e 92 -c 2 -a 0 -i 2 -k RTR
h -t 15.069842410 -s 5 -d -1 -p DSR -e 92 -c 2 -a 0 -i 2 -k RTR
+ -t 15.070869337 -s 14 -d -1 -p DSR -e 120 -c 2 -a 0 -i 2 -k RTR 
- -t 15.070869337 -s 14 -d -1 -p DSR -e 120 -c 2 -a 0 -i 2 -k RTR
h -t 15.070869337 -s 14 -d -1 -p DSR -e 120 -c 2 -a 0 -i 2 -k RTR
+ -t 15.071313367 -s 16 -d 22 -p DSR -e 68 -c 2 -a 0 -i 9 -k RTR 
- -t 15.071313367 -s 16 -d 22 -p DSR -e 68 -c 2 -a 0 -i 9 -k RTR
h -t 15.071313367 -s 16 -d 22 -p DSR -e 68 -c 2 -a 0 -i 9 -k RTR
+ -t 15.072674319 -s 8 -d -1 -p DSR -e 92 -c 2 -a 0 -i 2 -k RTR 
- -t 15.072674319 -s 8 -d -1 -p DSR -e 92 -c 2 -a 0 -i 2 -k RTR
h -t 15.072674319 -s 8 -d -1 -p DSR -e 92 -c 2 -a 0 -i 2 -k RTR
+ -t 15.074344884 -s 28 -d -1 -p DSR -e 92 -c 2 -a 0 -i 2 -k RTR 
- -t 15.074344884 -s 28 -d -1 -p DSR -e 92 -c 2 -a 0 -i 2 -k RTR
h -t 15.074344884 -s 28 -d -1 -p DSR -e 92 -c 2 -a 0 -i 2 -k RTR
+ -t 15.078117258 -s 16 -d 14 -p DSR -e 76 -c 2 -a 0 -i 10 -k RTR 
- -t 15.078117258 -s 16 -d 14 -p DSR -e 76 -c 2 -a 0 -i 10 -k RTR
h -t 15.078117258 -s 16 -d 14 -p DSR -e 76 -c 2 -a 0 -i 10 -k RTR
+ -t 15.078494346 -s 12 -d 6 -p DSR -e 60 -c 2 -a 0 -i 4 -k RTR 
- -t 15.078494346 -s 12 -d 6 -p DSR -e 60 -c 2 -a 0 -i 4 -k RTR
h -t 15.078494346 -s 12 -d 6 -p DSR -e 60 -c 2 -a 0 -i 4 -k RTR
+ -t 15.078901241 -s 2 -d -1 -p DSR -e 92 -c 2 -a 0 -i 2 -k RTR 
- -t 15.078901241 -s 2 -d -1 -p DSR -e 92 -c 2 -a 0 -i 2 -k RTR
h -t 15.078901241 -s 2 -d -1 -p DSR -e 92 -c 2 -a 0 -i 2 -k RTR
+ -t 15.088803523 -s 16 -d 17 -p DSR -e 76 -c 2 -a 0 -i 11 -k RTR 
- -t 15.088803523 -s 16 -d 17 -p DSR -e 76 -c 2 -a 0 -i 11 -k RTR
h -t 15.088803523 -s 16 -d 17 -p DSR -e 76 -c 2 -a 0 -i 11 -k RTR
+ -t 15.091820031 -s 14 -d 13 -p DSR -e 76 -c 2 -a 0 -i 10 -k RTR 
- -t 15.091820031 -s 14 -d 13 -p DSR -e 76 -c 2 -a 0 -i 10 -k RTR
h -t 15.091820031 -s 14 -d 13 -p DSR -e 76 -c 2 -a 0 -i 10 -k RTR
+ -t 15.091954734 -s 16 -d 18 -p DSR -e 76 -c 2 -a 0 -i 12 -k RTR 
- -t 15.091954734 -s 16 -d 18 -p DSR -e 76 -c 2 -a 0 -i 12 -k RTR
h -t 15.091954734 -s 16 -d 18 -p DSR -e 76 -c 2 -a 0 -i 12 -k RTR
+ -t 15.093856636 -s 16 -d 20 -p DSR -e 68 -c 2 -a 0 -i 13 -k RTR 
- -t 15.093856636 -s 16 -d 20 -p DSR -e 68 -c 2 -a 0 -i 13 -k RTR
h -t 15.093856636 -s 16 -d 20 -p DSR -e 68 -c 2 -a 0 -i 13 -k RTR
+ -t 15.094126031 -s 13 -d 23 -p DSR -e 76 -c 2 -a 0 -i 10 -k RTR 
- -t 15.094126031 -s 13 -d 23 -p DSR -e 76 -c 2 -a 0 -i 10 -k RTR
h -t 15.094126031 -s 13 -d 23 -p DSR -e 76 -c 2 -a 0 -i 10 -k RTR
+ -t 15.096211445 -s 23 -d 3 -p DSR -e 76 -c 2 -a 0 -i 10 -k RTR 
- -t 15.096211445 -s 23 -d 3 -p DSR -e 76 -c 2 -a 0 -i 10 -k RTR
h -t 15.096211445 -s 23 -d 3 -p DSR -e 76 -c 2 -a 0 -i 10 -k RTR
+ -t 15.098397190 -s 18 -d 19 -p DSR -e 76 -c 2 -a 0 -i 12 -k RTR 
- -t 15.098397190 -s 18 -d 19 -p DSR -e 76 -c 2 -a 0 -i 12 -k RTR
h -t 15.098397190 -s 18 -d 19 -p DSR -e 76 -c 2 -a 0 -i 12 -k RTR
+ -t 15.100483190 -s 19 -d 23 -p DSR -e 76 -c 2 -a 0 -i 12 -k RTR 
- -t 15.100483190 -s 19 -d 23 -p DSR -e 76 -c 2 -a 0 -i 12 -k RTR
h -t 15.100483190 -s 19 -d 23 -p DSR -e 76 -c 2 -a 0 -i 12 -k RTR
+ -t 15.102839702 -s 3 -d 0 -p DSR -e 76 -c 2 -a 0 -i 10 -k RTR 
- -t 15.102839702 -s 3 -d 0 -p DSR -e 76 -c 2 -a 0 -i 10 -k RTR
h -t 15.102839702 -s 3 -d 0 -p DSR -e 76 -c 2 -a 0 -i 10 -k RTR
+ -t 15.105226607 -s 20 -d 23 -p DSR -e 68 -c 2 -a 0 -i 13 -k RTR 
- -t 15.105226607 -s 20 -d 23 -p DSR -e 68 -c 2 -a 0 -i 13 -k RTR
h -t 15.105226607 -s 20 -d 23 -p DSR -e 68 -c 2 -a 0 -i 13 -k RTR
+ -t 15.107513353 -s 23 -d 3 -p DSR -e 76 -c 2 -a 0 -i 12 -k RTR 
- -t 15.107513353 -s 23 -d 3 -p DSR -e 76 -c 2 -a 0 -i 12 -k RTR
h -t 15.107513353 -s 23 -d 3 -p DSR -e 76 -c 2 -a 0 -i 12 -k RTR
+ -t 15.109700098 -s 17 -d 13 -p DSR -e 76 -c 2 -a 0 -i 11 -k RTR 
- -t 15.109700098 -s 17 -d 13 -p DSR -e 76 -c 2 -a 0 -i 11 -k RTR
h -t 15.109700098 -s 17 -d 13 -p DSR -e 76 -c 2 -a 0 -i 11 -k RTR
+ -t 15.111835922 -s 0 -d 3 -p tcp -e 92 -c 2 -a 0 -i 0 -k RTR 
- -t 15.111835922 -s 0 -d 3 -p tcp -e 92 -c 2 -a 0 -i 0 -k RTR
h -t 15.111835922 -s 0 -d 3 -p tcp -e 92 -c 2 -a 0 -i 0 -k RTR
+ -t 15.114308922 -s 3 -d 23 -p tcp -e 92 -c 2 -a 0 -i 0 -k RTR 
- -t 15.114308922 -s 3 -d 23 -p tcp -e 92 -c 2 -a 0 -i 0 -k RTR
h -t 15.114308922 -s 3 -d 23 -p tcp -e 92 -c 2 -a 0 -i 0 -k RTR
+ -t 15.116585879 -s 3 -d 0 -p DSR -e 76 -c 2 -a 0 -i 12 -k RTR 
- -t 15.116585879 -s 3 -d 0 -p DSR -e 76 -c 2 -a 0 -i 12 -k RTR
h -t 15.116585879 -s 3 -d 0 -p DSR -e 76 -c 2 -a 0 -i 12 -k RTR
+ -t 15.118840115 -s 23 -d 13 -p tcp -e 92 -c 2 -a 0 -i 0 -k RTR 
- -t 15.118840115 -s 23 -d 13 -p tcp -e 92 -c 2 -a 0 -i 0 -k RTR
h -t 15.118840115 -s 23 -d 13 -p tcp -e 92 -c 2 -a 0 -i 0 -k RTR
+ -t 15.121093529 -s 13 -d 14 -p tcp -e 92 -c 2 -a 0 -i 0 -k RTR 
- -t 15.121093529 -s 13 -d 14 -p tcp -e 92 -c 2 -a 0 -i 0 -k RTR
h -t 15.121093529 -s 13 -d 14 -p tcp -e 92 -c 2 -a 0 -i 0 -k RTR
+ -t 15.123176099 -s 23 -d 3 -p DSR -e 68 -c 2 -a 0 -i 13 -k RTR 
- -t 15.123176099 -s 23 -d 3 -p DSR -e 68 -c 2 -a 0 -i 13 -k RTR
h -t 15.123176099 -s 23 -d 3 -p DSR -e 68 -c 2 -a 0 -i 13 -k RTR
+ -t 15.125470570 -s 14 -d 16 -p tcp -e 92 -c 2 -a 0 -i 0 -k RTR 
- -t 15.125470570 -s 14 -d 16 -p tcp -e 92 -c 2 -a 0 -i 0 -k RTR
h -t 15.125470570 -s 14 -d 16 -p tcp -e 92 -c 2 -a 0 -i 0 -k RTR
+ -t 15.127533551 -s 22 -d 23 -p DSR -e 68 -c 2 -a 0 -i 9 -k RTR 
- -t 15.127533551 -s 22 -d 23 -p DSR -e 68 -c 2 -a 0 -i 9 -k RTR
h -t 15.127533551 -s 22 -d 23 -p DSR -e 68 -c 2 -a 0 -i 9 -k RTR
r -t 15.129788259 -s 16 -d 16 -p tcp -e 40 -c 2 -a 0 -i 0 -k AGT
+ -t 15.129788259 -s 16 -d -1 -p ack -e 40 -c 2 -a 0 -i 15 -k AGT 
- -t 15.129788259 -s 16 -d -1 -p ack -e 40 -c 2 -a 0 -i 15 -k AGT
h -t 15.129788259 -s 16 -d -1 -p ack -e 40 -c 2 -a 0 -i 15 -k AGT
+ -t 15.129788259 -s 16 -d 23 -p ack -e 84 -c 2 -a 0 -i 15 -k RTR 
- -t 15.129788259 -s 16 -d 23 -p ack -e 84 -c 2 -a 0 -i 15 -k RTR
h -t 15.129788259 -s 16 -d 23 -p ack -e 84 -c 2 -a 0 -i 15 -k RTR
+ -t 15.131860804 -s 3 -d 0 -p DSR -e 68 -c 2 -a 0 -i 13 -k RTR 
- -t 15.131860804 -s 3 -d 0 -p DSR -e 68 -c 2 -a 0 -i 13 -k RTR
h -t 15.131860804 -s 3 -d 0 -p DSR -e 68 -c 2 -a 0 -i 13 -k RTR
+ -t 15.138894551 -s 23 -d 3 -p DSR -e 68 -c 2 -a 0 -i 9 -k RTR 
- -t 15.138894551 -s 23 -d 3 -p DSR -e 68 -c 2 -a 0 -i 9 -k RTR
h -t 15.138894551 -s 23 -d 3 -p DSR -e 68 -c 2 -a 0 -i 9 -k RTR
+ -t 15.141036787 -s 3 -d 0 -p DSR -e 68 -c 2 -a 0 -i 9 -k RTR 
- -t 15.141036787 -s 3 -d 0 -p DSR -e 68 -c 2 -a 0 -i 9 -k RTR
h -t 15.141036787 -s 3 -d 0 -p DSR -e 68 -c 2 -a 0 -i 9 -k RTR
+ -t 15.145600997 -s 21 -d 6 -p DSR -e 60 -c 2 -a 0 -i 8 -k RTR 
- -t 15.145600997 -s 21 -d 6 -p DSR -e 60 -c 2 -a 0 -i 8 -k RTR
h -t 15.145600997 -s 21 -d 6 -p DSR -e 60 -c 2 -a 0 -i 8 -k RTR
+ -t 15.147599233 -s 6 -d 0 -p DSR -e 60 -c 2 -a 0 -i 8 -k RTR 
- -t 15.147599233 -s 6 -d 0 -p DSR -e 60 -c 2 -a 0 -i 8 -k RTR
h -t 15.147599233 -s 6 -d 0 -p DSR -e 60 -c 2 -a 0 -i 8 -k RTR
+ -t 15.152124028 -s 13 -d 23 -p DSR -e 68 -c 2 -a 0 -i 6 -k RTR 
- -t 15.152124028 -s 13 -d 23 -p DSR -e 68 -c 2 -a 0 -i 6 -k RTR
h -t 15.152124028 -s 13 -d 23 -p DSR -e 68 -c 2 -a 0 -i 6 -k RTR
+ -t 15.154082694 -s 6 -d 0 -p DSR -e 60 -c 2 -a 0 -i 4 -k RTR 
- -t 15.154082694 -s 6 -d 0 -p DSR -e 60 -c 2 -a 0 -i 4 -k RTR
h -t 15.154082694 -s 6 -d 0 -p DSR -e 60 -c 2 -a 0 -i 4 -k RTR
+ -t 15.156634597 -s 13 -d 23 -p DSR -e 76 -c 2 -a 0 -i 11 -k RTR 
- -t 15.156634597 -s 13 -d 23 -p DSR -e 76 -c 2 -a 0 -i 11 -k RTR
h -t 15.156634597 -s 13 -d 23 -p DSR -e 76 -c 2 -a 0 -i 11 -k RTR
+ -t 15.158975930 -s 19 -d 23 -p DSR -e 68 -c 2 -a 0 -i 5 -k RTR 
- -t 15.158975930 -s 19 -d 23 -p DSR -e 68 -c 2 -a 0 -i 5 -k RTR
h -t 15.158975930 -s 19 -d 23 -p DSR -e 68 -c 2 -a 0 -i 5 -k RTR
+ -t 15.160997816 -s 23 -d 3 -p DSR -e 68 -c 2 -a 0 -i 6 -k RTR 
- -t 15.160997816 -s 23 -d 3 -p DSR -e 68 -c 2 -a 0 -i 6 -k RTR
h -t 15.160997816 -s 23 -d 3 -p DSR -e 68 -c 2 -a 0 -i 6 -k RTR
+ -t 15.163120483 -s 23 -d 3 -p DSR -e 68 -c 2 -a 0 -i 5 -k RTR 
- -t 15.163120483 -s 23 -d 3 -p DSR -e 68 -c 2 -a 0 -i 5 -k RTR
h -t 15.163120483 -s 23 -d 3 -p DSR -e 68 -c 2 -a 0 -i 5 -k RTR
+ -t 15.167716665 -s 15 -d 23 -p DSR -e 68 -c 2 -a 0 -i 7 -k RTR 
- -t 15.167716665 -s 15 -d 23 -p DSR -e 68 -c 2 -a 0 -i 7 -k RTR
h -t 15.167716665 -s 15 -d 23 -p DSR -e 68 -c 2 -a 0 -i 7 -k RTR
+ -t 15.169802825 -s 23 -d 3 -p DSR -e 76 -c 2 -a 0 -i 11 -k RTR 
- -t 15.169802825 -s 23 -d 3 -p DSR -e 76 -c 2 -a 0 -i 11 -k RTR
h -t 15.169802825 -s 23 -d 3 -p DSR -e 76 -c 2 -a 0 -i 11 -k RTR
+ -t 15.171925061 -s 3 -d 0 -p DSR -e 68 -c 2 -a 0 -i 6 -k RTR 
- -t 15.171925061 -s 3 -d 0 -p DSR -e 68 -c 2 -a 0 -i 6 -k RTR
h -t 15.171925061 -s 3 -d 0 -p DSR -e 68 -c 2 -a 0 -i 6 -k RTR
+ -t 15.174032042 -s 3 -d 0 -p DSR -e 76 -c 2 -a 0 -i 11 -k RTR 
- -t 15.174032042 -s 3 -d 0 -p DSR -e 76 -c 2 -a 0 -i 11 -k RTR
h -t 15.174032042 -s 3 -d 0 -p DSR -e 76 -c 2 -a 0 -i 11 -k RTR
+ -t 15.176315024 -s 3 -d 0 -p DSR -e 68 -c 2 -a 0 -i 5 -k RTR 
- -t 15.176315024 -s 3 -d 0 -p DSR -e 68 -c 2 -a 0 -i 5 -k RTR
h -t 15.176315024 -s 3 -d 0 -p DSR -e 68 -c 2 -a 0 -i 5 -k RTR
+ -t 15.182925260 -s 23 -d 3 -p DSR -e 68 -c 2 -a 0 -i 7 -k RTR 
- -t 15.182925260 -s 23 -d 3 -p DSR -e 68 -c 2 -a 0 -i 7 -k RTR
h -t 15.182925260 -s 23 -d 3 -p DSR -e 68 -c 2 -a 0 -i 7 -k RTR
+ -t 15.187484879 -s 23 -d 3 -p DSR -e 60 -c 2 -a 0 -i 3 -k RTR 
- -t 15.187484879 -s 23 -d 3 -p DSR -e 60 -c 2 -a 0 -i 3 -k RTR
h -t 15.187484879 -s 23 -d 3 -p DSR -e 60 -c 2 -a 0 -i 3 -k RTR
+ -t 15.189647115 -s 3 -d 0 -p DSR -e 68 -c 2 -a 0 -i 7 -k RTR 
- -t 15.189647115 -s 3 -d 0 -p DSR -e 68 -c 2 -a 0 -i 7 -k RTR
h -t 15.189647115 -s 3 -d 0 -p DSR -e 68 -c 2 -a 0 -i 7 -k RTR
+ -t 15.194391405 -s 3 -d 0 -p DSR -e 60 -c 2 -a 0 -i 3 -k RTR 
- -t 15.194391405 -s 3 -d 0 -p DSR -e 60 -c 2 -a 0 -i 3 -k RTR
h -t 15.194391405 -s 3 -d 0 -p DSR -e 60 -c 2 -a 0 -i 3 -k RTR
+ -t 15.199324436 -s 23 -d 3 -p ack -e 84 -c 2 -a 0 -i 15 -k RTR 
- -t 15.199324436 -s 23 -d 3 -p ack -e 84 -c 2 -a 0 -i 15 -k RTR
h -t 15.199324436 -s 23 -d 3 -p ack -e 84 -c 2 -a 0 -i 15 -k RTR
+ -t 15.201554672 -s 3 -d 0 -p ack -e 84 -c 2 -a 0 -i 15 -k RTR 
- -t 15.201554672 -s 3 -d 0 -p ack -e 84 -c 2 -a 0 -i 15 -k RTR
h -t 15.201554672 -s 3 -d 0 -p ack -e 84 -c 2 -a 0 -i 15 -k RTR
r -t 15.203803672 -s 0 -d 0 -p ack -e 40 -c 2 -a 0 -i 15 -k AGT
+ -t 15.203803672 -s 0 -d -1 -p tcp -e 1040 -c 2 -a 0 -i 16 -k AGT 
- -t 15.203803672 -s 0 -d -1 -p tcp -e 1040 -c 2 -a 0 -i 16 -k AGT
h -t 15.203803672 -s 0 -d -1 -p tcp -e 1040 -c 2 -a 0 -i 16 -k AGT
+ -t 15.203803672 -s 0 -d -1 -p tcp -e 1040 -c 2 -a 0 -i 17 -k AGT 
- -t 15.203803672 -s 0 -d -1 -p tcp -e 1040 -c 2 -a 0 -i 17 -k AGT
h -t 15.203803672 -s 0 -d -1 -p tcp -e 1040 -c 2 -a 0 -i 17 -k AGT
+ -t 15.203803672 -s 0 -d 6 -p tcp -e 1084 -c 2 -a 0 -i 16 -k RTR 
- -t 15.203803672 -s 0 -d 6 -p tcp -e 1084 -c 2 -a 0 -i 16 -k RTR
h -t 15.203803672 -s 0 -d 6 -p tcp -e 1084 -c 2 -a 0 -i 16 -k RTR
+ -t 15.203803672 -s 0 -d 6 -p tcp -e 1084 -c 2 -a 0 -i 17 -k RTR 
- -t 15.203803672 -s 0 -d 6 -p tcp -e 1084 -c 2 -a 0 -i 17 -k RTR
h -t 15.203803672 -s 0 -d 6 -p tcp -e 1084 -c 2 -a 0 -i 17 -k RTR
+ -t 15.214293672 -s 6 -d 21 -p tcp -e 1084 -c 2 -a 0 -i 16 -k RTR 
- -t 15.214293672 -s 6 -d 21 -p tcp -e 1084 -c 2 -a 0 -i 16 -k RTR
h -t 15.214293672 -s 6 -d 21 -p tcp -e 1084 -c 2 -a 0 -i 16 -k RTR
+ -t 15.224524339 -s 6 -d 21 -p tcp -e 1084 -c 2 -a 0 -i 17 -k RTR 
- -t 15.224524339 -s 6 -d 21 -p tcp -e 1084 -c 2 -a 0 -i 17 -k RTR
h -t 15.224524339 -s 6 -d 21 -p tcp -e 1084 -c 2 -a 0 -i 17 -k RTR
+ -t 15.234874575 -s 21 -d 16 -p tcp -e 1084 -c 2 -a 0 -i 16 -k RTR 
- -t 15.234874575 -s 21 -d 16 -p tcp -e 1084 -c 2 -a 0 -i 16 -k RTR
h -t 15.234874575 -s 21 -d 16 -p tcp -e 1084 -c 2 -a 0 -i 16 -k RTR
+ -t 15.245145556 -s 21 -d 16 -p tcp -e 1084 -c 2 -a 0 -i 17 -k RTR 
- -t 15.245145556 -s 21 -d 16 -p tcp -e 1084 -c 2 -a 0 -i 17 -k RTR
h -t 15.245145556 -s 21 -d 16 -p tcp -e 1084 -c 2 -a 0 -i 17 -k RTR
r -t 15.255514971 -s 16 -d 16 -p tcp -e 1040 -c 2 -a 0 -i 16 -k AGT
+ -t 15.255514971 -s 16 -d -1 -p ack -e 40 -c 2 -a 0 -i 18 -k AGT 
- -t 15.255514971 -s 16 -d -1 -p ack -e 40 -c 2 -a 0 -i 18 -k AGT
h -t 15.255514971 -s 16 -d -1 -p ack -e 40 -c 2 -a 0 -i 18 -k AGT
+ -t 15.255514971 -s 16 -d 23 -p ack -e 84 -c 2 -a 0 -i 18 -k RTR 
- -t 15.255514971 -s 16 -d 23 -p ack -e 84 -c 2 -a 0 -i 18 -k RTR
h -t 15.255514971 -s 16 -d 23 -p ack -e 84 -c 2 -a 0 -i 18 -k RTR
r -t 15.266084856 -s 16 -d 16 -p tcp -e 1040 -c 2 -a 0 -i 17 -k AGT
+ -t 15.266084856 -s 16 -d -1 -p ack -e 40 -c 2 -a 0 -i 19 -k AGT 
- -t 15.266084856 -s 16 -d -1 -p ack -e 40 -c 2 -a 0 -i 19 -k AGT
h -t 15.266084856 -s 16 -d -1 -p ack -e 40 -c 2 -a 0 -i 19 -k AGT
+ -t 15.266084856 -s 16 -d 23 -p ack -e 84 -c 2 -a 0 -i 19 -k RTR 
- -t 15.266084856 -s 16 -d 23 -p ack -e 84 -c 2 -a 0 -i 19 -k RTR
h -t 15.266084856 -s 16 -d 23 -p ack -e 84 -c 2 -a 0 -i 19 -k RTR
+ -t 15.268355092 -s 23 -d 3 -p ack -e 84 -c 2 -a 0 -i 18 -k RTR 
- -t 15.268355092 -s 23 -d 3 -p ack -e 84 -c 2 -a 0 -i 18 -k RTR
h -t 15.268355092 -s 23 -d 3 -p ack -e 84 -c 2 -a 0 -i 18 -k RTR
+ -t 15.270885328 -s 3 -d 0 -p ack -e 84 -c 2 -a 0 -i 18 -k RTR 
- -t 15.270885328 -s 3 -d 0 -p ack -e 84 -c 2 -a 0 -i 18 -k RTR
h -t 15.270885328 -s 3 -d 0 -p ack -e 84 -c 2 -a 0 -i 18 -k RTR
+ -t 15.273441055 -s 23 -d 3 -p ack -e 84 -c 2 -a 0 -i 19 -k RTR 
- -t 15.273441055 -s 23 -d 3 -p ack -e 84 -c 2 -a 0 -i 19 -k RTR
h -t 15.273441055 -s 23 -d 3 -p ack -e 84 -c 2 -a 0 -i 19 -k RTR
+ -t 15.275631291 -s 3 -d 0 -p ack -e 84 -c 2 -a 0 -i 19 -k RTR 
- -t 15.275631291 -s 3 -d 0 -p ack -e 84 -c 2 -a 0 -i 19 -k RTR
h -t 15.275631291 -s 3 -d 0 -p ack -e 84 -c 2 -a 0 -i 19 -k RTR
r -t 15.277800291 -s 0 -d 0 -p ack -e 40 -c 2 -a 0 -i 18 -k AGT
+ -t 15.277800291 -s 0 -d -1 -p tcp -e 1040 -c 2 -a 0 -i 20 -k AGT 
- -t 15.277800291 -s 0 -d -1 -p tcp -e 1040 -c 2 -a 0 -i 20 -k AGT
h -t 15.277800291 -s 0 -d -1 -p tcp -e 1040 -c 2 -a 0 -i 20 -k AGT
+ -t 15.277800291 -s 0 -d -1 -p tcp -e 1040 -c 2 -a 0 -i 21 -k AGT 
- -t 15.277800291 -s 0 -d -1 -p tcp -e 1040 -c 2 -a 0 -i 21 -k AGT
h -t 15.277800291 -s 0 -d -1 -p tcp -e 1040 -c 2 -a 0 -i 21 -k AGT
+ -t 15.277800291 -s 0 -d 6 -p tcp -e 1084 -c 2 -a 0 -i 20 -k RTR 
- -t 15.277800291 -s 0 -d 6 -p tcp -e 1084 -c 2 -a 0 -i 20 -k RTR
h -t 15.277800291 -s 0 -d 6 -p tcp -e 1084 -c 2 -a 0 -i 20 -k RTR
+ -t 15.277800291 -s 0 -d 6 -p tcp -e 1060 -c 2 -a 0 -i 21 -k RTR 
- -t 15.277800291 -s 0 -d 6 -p tcp -e 1060 -c 2 -a 0 -i 21 -k RTR
h -t 15.277800291 -s 0 -d 6 -p tcp -e 1060 -c 2 -a 0 -i 21 -k RTR
r -t 15.280209625 -s 0 -d 0 -p ack -e 40 -c 2 -a 0 -i 19 -k AGT
+ -t 15.280209625 -s 0 -d -1 -p tcp -e 1040 -c 2 -a 0 -i 22 -k AGT 
- -t 15.280209625 -s 0 -d -1 -p tcp -e 1040 -c 2 -a 0 -i 22 -k AGT
h -t 15.280209625 -s 0 -d -1 -p tcp -e 1040 -c 2 -a 0 -i 22 -k AGT
+ -t 15.280209625 -s 0 -d -1 -p tcp -e 1040 -c 2 -a 0 -i 23 -k AGT 
- -t 15.280209625 -s 0 -d -1 -p tcp -e 1040 -c 2 -a 0 -i 23 -k AGT
h -t 15.280209625 -s 0 -d -1 -p tcp -e 1040 -c 2 -a 0 -i 23 -k AGT
+ -t 15.280209625 -s 0 -d 6 -p tcp -e 1060 -c 2 -a 0 -i 22 -k RTR 
- -t 15.280209625 -s 0 -d 6 -p tcp -e 1060 -c 2 -a 0 -i 22 -k RTR
h -t 15.280209625 -s 0 -d 6 -p tcp -e 1060 -c 2 -a 0 -i 22 -k RTR
+ -t 15.280209625 -s 0 -d 6 -p tcp -e 1060 -c 2 -a 0 -i 23 -k RTR 
- -t 15.280209625 -s 0 -d 6 -p tcp -e 1060 -c 2 -a 0 -i 23 -k RTR
h -t 15.280209625 -s 0 -d 6 -p tcp -e 1060 -c 2 -a 0 -i 23 -k RTR
+ -t 15.290599625 -s 6 -d 21 -p tcp -e 1084 -c 2 -a 0 -i 20 -k RTR 
- -t 15.290599625 -s 6 -d 21 -p tcp -e 1084 -c 2 -a 0 -i 20 -k RTR
h -t 15.290599625 -s 6 -d 21 -p tcp -e 1084 -c 2 -a 0 -i 20 -k RTR
+ -t 15.300638291 -s 6 -d 21 -p tcp -e 1060 -c 2 -a 0 -i 21 -k RTR 
- -t 15.300638291 -s 6 -d 21 -p tcp -e 1060 -c 2 -a 0 -i 21 -k RTR
h -t 15.300638291 -s 6 -d 21 -p tcp -e 1060 -c 2 -a 0 -i 21 -k RTR
+ -t 15.310616958 -s 6 -d 21 -p tcp -e 1060 -c 2 -a 0 -i 22 -k RTR 
- -t 15.310616958 -s 6 -d 21 -p tcp -e 1060 -c 2 -a 0 -i 22 -k RTR
h -t 15.310616958 -s 6 -d 21 -p tcp -e 1060 -c 2 -a 0 -i 22 -k RTR
+ -t 15.320595625 -s 6 -d 21 -p tcp -e 1060 -c 2 -a 0 -i 23 -k RTR 
- -t 15.320595625 -s 6 -d 21 -p tcp -e 1060 -c 2 -a 0 -i 23 -k RTR
h -t 15.320595625 -s 6 -d 21 -p tcp -e 1060 -c 2 -a 0 -i 23 -k RTR
+ -t 15.330965861 -s 21 -d 16 -p tcp -e 1084 -c 2 -a 0 -i 20 -k RTR 
- -t 15.330965861 -s 21 -d 16 -p tcp -e 1084 -c 2 -a 0 -i 20 -k RTR
h -t 15.330965861 -s 21 -d 16 -p tcp -e 1084 -c 2 -a 0 -i 20 -k RTR
r -t 15.341195275 -s 16 -d 16 -p tcp -e 1040 -c 2 -a 0 -i 20 -k AGT
+ -t 15.341195275 -s 16 -d -1 -p ack -e 40 -c 2 -a 0 -i 24 -k AGT 
- -t 15.341195275 -s 16 -d -1 -p ack -e 40 -c 2 -a 0 -i 24 -k AGT
h -t 15.341195275 -s 16 -d -1 -p ack -e 40 -c 2 -a 0 -i 24 -k AGT
+ -t 15.341195275 -s 16 -d 23 -p ack -e 60 -c 2 -a 0 -i 24 -k RTR 
- -t 15.341195275 -s 16 -d 23 -p ack -e 60 -c 2 -a 0 -i 24 -k RTR
h -t 15.341195275 -s 16 -d 23 -p ack -e 60 -c 2 -a 0 -i 24 -k RTR
+ -t 15.343513511 -s 23 -d 3 -p ack -e 60 -c 2 -a 0 -i 24 -k RTR 
- -t 15.343513511 -s 23 -d 3 -p ack -e 60 -c 2 -a 0 -i 24 -k RTR
h -t 15.343513511 -s 23 -d 3 -p ack -e 60 -c 2 -a 0 -i 24 -k RTR
+ -t 15.345731747 -s 3 -d 0 -p ack -e 60 -c 2 -a 0 -i 24 -k RTR 
- -t 15.345731747 -s 3 -d 0 -p ack -e 60 -c 2 -a 0 -i 24 -k RTR
h -t 15.345731747 -s 3 -d 0 -p ack -e 60 -c 2 -a 0 -i 24 -k RTR
+ -t 15.355690316 -s 21 -d 16 -p tcp -e 1060 -c 2 -a 0 -i 21 -k RTR 
- -t 15.355690316 -s 21 -d 16 -p tcp -e 1060 -c 2 -a 0 -i 21 -k RTR
h -t 15.355690316 -s 21 -d 16 -p tcp -e 1060 -c 2 -a 0 -i 21 -k RTR
+ -t 15.365809298 -s 21 -d 16 -p tcp -e 1060 -c 2 -a 0 -i 22 -k RTR 
- -t 15.365809298 -s 21 -d 16 -p tcp -e 1060 -c 2 -a 0 -i 22 -k RTR
h -t 15.365809298 -s 21 -d 16 -p tcp -e 1060 -c 2 -a 0 -i 22 -k RTR
r -t 15.375826712 -s 16 -d 16 -p tcp -e 1040 -c 2 -a 0 -i 21 -k AGT
+ -t 15.375826712 -s 16 -d -1 -p ack -e 40 -c 2 -a 0 -i 25 -k AGT 
- -t 15.375826712 -s 16 -d -1 -p ack -e 40 -c 2 -a 0 -i 25 -k AGT
h -t 15.375826712 -s 16 -d -1 -p ack -e 40 -c 2 -a 0 -i 25 -k AGT
+ -t 15.375826712 -s 16 -d 23 -p ack -e 60 -c 2 -a 0 -i 25 -k RTR 
- -t 15.375826712 -s 16 -d 23 -p ack -e 60 -c 2 -a 0 -i 25 -k RTR
h -t 15.375826712 -s 16 -d 23 -p ack -e 60 -c 2 -a 0 -i 25 -k RTR
r -t 15.385844598 -s 16 -d 16 -p tcp -e 1040 -c 2 -a 0 -i 22 -k AGT
+ -t 15.385844598 -s 16 -d -1 -p ack -e 40 -c 2 -a 0 -i 26 -k AGT 
- -t 15.385844598 -s 16 -d -1 -p ack -e 40 -c 2 -a 0 -i 26 -k AGT
h -t 15.385844598 -s 16 -d -1 -p ack -e 40 -c 2 -a 0 -i 26 -k AGT
+ -t 15.385844598 -s 16 -d 23 -p ack -e 60 -c 2 -a 0 -i 26 -k RTR 
- -t 15.385844598 -s 16 -d 23 -p ack -e 60 -c 2 -a 0 -i 26 -k RTR
h -t 15.385844598 -s 16 -d 23 -p ack -e 60 -c 2 -a 0 -i 26 -k RTR
+ -t 15.388162834 -s 23 -d 3 -p ack -e 60 -c 2 -a 0 -i 25 -k RTR 
- -t 15.388162834 -s 23 -d 3 -p ack -e 60 -c 2 -a 0 -i 25 -k RTR
h -t 15.388162834 -s 23 -d 3 -p ack -e 60 -c 2 -a 0 -i 25 -k RTR
+ -t 15.390321070 -s 3 -d 0 -p ack -e 60 -c 2 -a 0 -i 25 -k RTR 
- -t 15.390321070 -s 3 -d 0 -p ack -e 60 -c 2 -a 0 -i 25 -k RTR
h -t 15.390321070 -s 3 -d 0 -p ack -e 60 -c 2 -a 0 -i 25 -k RTR
r -t 15.392378070 -s 0 -d 0 -p ack -e 40 -c 2 -a 0 -i 24 -k AGT
+ -t 15.392378070 -s 0 -d -1 -p tcp -e 1040 -c 2 -a 0 -i 27 -k AGT 
- -t 15.392378070 -s 0 -d -1 -p tcp -e 1040 -c 2 -a 0 -i 27 -k AGT
h -t 15.392378070 -s 0 -d -1 -p tcp -e 1040 -c 2 -a 0 -i 27 -k AGT
+ -t 15.392378070 -s 0 -d -1 -p tcp -e 1040 -c 2 -a 0 -i 28 -k AGT 
- -t 15.392378070 -s 0 -d -1 -p tcp -e 1040 -c 2 -a 0 -i 28 -k AGT
h -t 15.392378070 -s 0 -d -1 -p tcp -e 1040 -c 2 -a 0 -i 28 -k AGT
+ -t 15.392378070 -s 0 -d 6 -p tcp -e 1060 -c 2 -a 0 -i 27 -k RTR 
- -t 15.392378070 -s 0 -d 6 -p tcp -e 1060 -c 2 -a 0 -i 27 -k RTR
h -t 15.392378070 -s 0 -d 6 -p tcp -e 1060 -c 2 -a 0 -i 27 -k RTR
+ -t 15.392378070 -s 0 -d 6 -p tcp -e 1060 -c 2 -a 0 -i 28 -k RTR 
- -t 15.392378070 -s 0 -d 6 -p tcp -e 1060 -c 2 -a 0 -i 28 -k RTR
h -t 15.392378070 -s 0 -d 6 -p tcp -e 1060 -c 2 -a 0 -i 28 -k RTR
+ -t 15.402336972 -s 21 -d 16 -p tcp -e 1060 -c 2 -a 0 -i 23 -k RTR 
- -t 15.402336972 -s 21 -d 16 -p tcp -e 1060 -c 2 -a 0 -i 23 -k RTR
h -t 15.402336972 -s 21 -d 16 -p tcp -e 1060 -c 2 -a 0 -i 23 -k RTR
+ -t 15.404485665 -s 23 -d 3 -p ack -e 60 -c 2 -a 0 -i 26 -k RTR 
- -t 15.404485665 -s 23 -d 3 -p ack -e 60 -c 2 -a 0 -i 26 -k RTR
h -t 15.404485665 -s 23 -d 3 -p ack -e 60 -c 2 -a 0 -i 26 -k RTR
r -t 15.406553410 -s 0 -d 0 -p ack -e 40 -c 2 -a 0 -i 25 -k AGT
+ -t 15.406553410 -s 0 -d -1 -p tcp -e 1040 -c 2 -a 0 -i 29 -k AGT 
- -t 15.406553410 -s 0 -d -1 -p tcp -e 1040 -c 2 -a 0 -i 29 -k AGT
h -t 15.406553410 -s 0 -d -1 -p tcp -e 1040 -c 2 -a 0 -i 29 -k AGT
+ -t 15.406553410 -s 0 -d -1 -p tcp -e 1040 -c 2 -a 0 -i 30 -k AGT 
- -t 15.406553410 -s 0 -d -1 -p tcp -e 1040 -c 2 -a 0 -i 30 -k AGT
h -t 15.406553410 -s 0 -d -1 -p tcp -e 1040 -c 2 -a 0 -i 30 -k AGT
+ -t 15.406553410 -s 0 -d 6 -p tcp -e 1060 -c 2 -a 0 -i 29 -k RTR 
- -t 15.406553410 -s 0 -d 6 -p tcp -e 1060 -c 2 -a 0 -i 29 -k RTR
h -t 15.406553410 -s 0 -d 6 -p tcp -e 1060 -c 2 -a 0 -i 29 -k RTR
+ -t 15.406553410 -s 0 -d 6 -p tcp -e 1060 -c 2 -a 0 -i 30 -k RTR 
- -t 15.406553410 -s 0 -d 6 -p tcp -e 1060 -c 2 -a 0 -i 30 -k RTR
h -t 15.406553410 -s 0 -d 6 -p tcp -e 1060 -c 2 -a 0 -i 30 -k RTR
+ -t 15.416631410 -s 6 -d 21 -p tcp -e 1060 -c 2 -a 0 -i 27 -k RTR 
- -t 15.416631410 -s 6 -d 21 -p tcp -e 1060 -c 2 -a 0 -i 27 -k RTR
h -t 15.416631410 -s 6 -d 21 -p tcp -e 1060 -c 2 -a 0 -i 27 -k RTR
+ -t 15.426590077 -s 6 -d 21 -p tcp -e 1060 -c 2 -a 0 -i 28 -k RTR 
- -t 15.426590077 -s 6 -d 21 -p tcp -e 1060 -c 2 -a 0 -i 28 -k RTR
h -t 15.426590077 -s 6 -d 21 -p tcp -e 1060 -c 2 -a 0 -i 28 -k RTR
+ -t 15.428658701 -s 3 -d 0 -p ack -e 60 -c 2 -a 0 -i 26 -k RTR 
- -t 15.428658701 -s 3 -d 0 -p ack -e 60 -c 2 -a 0 -i 26 -k RTR
h -t 15.428658701 -s 3 -d 0 -p ack -e 60 -c 2 -a 0 -i 26 -k RTR
r -t 15.430655701 -s 0 -d 0 -p ack -e 40 -c 2 -a 0 -i 26 -k AGT
+ -t 15.430655701 -s 0 -d -1 -p tcp -e 1040 -c 2 -a 0 -i 31 -k AGT 
- -t 15.430655701 -s 0 -d -1 -p tcp -e 1040 -c 2 -a 0 -i 31 -k AGT
h -t 15.430655701 -s 0 -d -1 -p tcp -e 1040 -c 2 -a 0 -i 31 -k AGT
+ -t 15.430655701 -s 0 -d -1 -p tcp -e 1040 -c 2 -a 0 -i 32 -k AGT 
- -t 15.430655701 -s 0 -d -1 -p tcp -e 1040 -c 2 -a 0 -i 32 -k AGT
h -t 15.430655701 -s 0 -d -1 -p tcp -e 1040 -c 2 -a 0 -i 32 -k AGT