Sconfig 0.00000 tap: on snoop: rts? on errs? on
Sconfig 0.00000 salvage: on !bd replies? on
Sconfig 0.00000 grat error: on grat reply: on
Sconfig 0.00000 $reply for props: on ring 0 search: on
Sconfig 0.00000 using MOBICACHE
s 15.000000000 _0_ AGT  --- 0 cbr 512 [0 0 0 0] ------- [0:0 23:0 32 0] [0] 0 0
r 15.000000000 _0_ RTR  --- 0 cbr 512 [0 0 0 0] ------- [0:0 23:0 32 0] [0] 0 0
s 15.000000000 _1_ AGT  --- 2 cbr 512 [0 0 0 0] ------- [1:0 23:1 32 0] [0] 0 0
r 15.000000000 _1_ RTR  --- 2 cbr 512 [0 0 0 0] ------- [1:0 23:1 32 0] [0] 0 0
s 15.000000000 _3_ AGT  --- 4 cbr 512 [0 0 0 0] ------- [3:0 21:0 32 0] [0] 0 0
r 15.000000000 _3_ RTR  --- 4 cbr 512 [0 0 0 0] ------- [3:0 21:0 32 0] [0] 0 0
s 15.002023425 _1_ RTR  --- 3 DSR 32 [0 0 0 0] ------- [1:255 23:255 32 0] 1 [1 1] [0 1 0 0->0] [0 0 0 0->0]
r 15.002955759 _4_ RTR  --- 3 DSR 32 [0 ffffffff 1 800] ------- [1:255 23:255 32 0] 1 [1 1] [0 1 0 0->0] [0 0 0 0->0]
r 15.002956092 _0_ RTR  --- 3 DSR 32 [0 ffffffff 1 800] ------- [1:255 23:255 32 0] 1 [1 1] [0 1 0 0->0] [0 0 0 0->0]
r 15.002956092 _7_ RTR  --- 3 DSR 32 [0 ffffffff 1 800] ------- [1:255 23:255 32 0] 1 [1 1] [0 1 0 0->0] [0 0 0 0->0]
r 15.002956092 _2_ RTR  --- 3 DSR 32 [0 ffffffff 1 800] ------- [1:255 23:255 32 0] 1 [1 1] [0 1 0 0->0] [0 0 0 0->0]
r 15.002956171 _3_ RTR  --- 3 DSR 32 [0 ffffffff 1 800] ------- [1:255 23:255 32 0] 1 [1 1] [0 1 0 0->0] [0 0 0 0->0]
r 15.002956171 _24_ RTR  --- 3 DSR 32 [0 ffffffff 1 800] ------- [1:255 23:255 32 0] 1 [1 1] [0 1 0 0->0] [0 0 0 0->0]
r 15.002956171 _5_ RTR  --- 3 DSR 32 [0 ffffffff 1 800] ------- [1:255 23:255 32 0] 1 [1 1] [0 1 0 0->0] [0 0 0 0->0]
s 15.008841559 _3_ RTR  --- 5 DSR 32 [0 0 0 0] ------- [3:255 21:255 32 0] 1 [1 1] [0 1 0 0->0] [0 0 0 0->0]
s 15.008890119 _0_ RTR  --- 1 DSR 32 [0 0 0 0] ------- [0:255 23:255 32 0] 1 [1 1] [0 1 0 0->0] [0 0 0 0->0]
r 15.009813892 _0_ RTR  --- 5 DSR 32 [0 ffffffff 3 800] ------- [3:255 21:255 32 0] 1 [1 1] [0 1 0 0->0] [0 0 0 0->0]
r 15.009813892 _6_ RTR  --- 5 DSR 32 [0 ffffffff 3 800] ------- [3:255 21:255 32 0] 1 [1 1] [0 1 0 0->0] [0 0 0 0->0]
r 15.009814225 _9_ RTR  --- 5 DSR 32 [0 ffffffff 3 800] ------- [3:255 21:255 32 0] 1 [1 1] [0 1 0 0->0] [0 0 0 0->0]
r 15.009814225 _4_ RTR  --- 5 DSR 32 [0 ffffffff 3 800] ------- [3:255 21:255 32 0] 1 [1 1] [0 1 0 0->0] [0 0 0 0->0]
r 15.009814304 _23_ RTR  --- 5 DSR 32 [0 ffffffff 3 800] ------- [3:255 21:255 32 0] 1 [1 1] [0 1 0 0->0] [0 0 0 0->0]
r 15.009814304 _1_ RTR  --- 5 DSR 32 [0 ffffffff 3 800] ------- [3:255 21:255 32 0] 1 [1 1] [0 1 0 0->0] [0 0 0 0->0]
r 15.009814304 _7_ RTR  --- 5 DSR 32 [0 ffffffff 3 800] ------- [3:255 21:255 32 0] 1 [1 1] [0 1 0 0->0] [0 0 0 0->0]
r 15.010656225 _3_ RTR  --- 1 DSR 32 [0 ffffffff 0 800] ------- [0:255 23:255 32 0] 1 [1 1] [0 1 0 0->0] [0 0 0 0->0]
r 15.010656559 _6_ RTR  --- 1 DSR 32 [0 ffffffff 0 800] ------- [0:255 23:255 32 0] 1 [1 1] [0 1 0 0->0] [0 0 0 0->0]
r 15.010656559 _1_ RTR  --- 1 DSR 32 [0 ffffffff 0 800] ------- [0:255 23:255 32 0] 1 [1 1] [0 1 0 0->0] [0 0 0 0->0]
r 15.010656637 _4_ RTR  --- 1 DSR 32 [0 ffffffff 0 800] ------- [0:255 23:255 32 0] 1 [1 1] [0 1 0 0->0] [0 0 0 0->0]
s 15.041514746 _1_ RTR  --- 9 DSR 32 [0 0 0 0] ------- [1:255 23:255 32 0] 1 [1 2] [0 2 0 0->16] [0 0 0 0->0]
r 15.042287080 _4_ RTR  --- 9 DSR 32 [0 ffffffff 1 800] ------- [1:255 23:255 32 0] 1 [1 2] [0 2 0 0->16] [0 0 0 0->0]
r 15.042287413 _0_ RTR  --- 9 DSR 32 [0 ffffffff 1 800] ------- [1:255 23:255 32 0] 1 [1 2] [0 2 0 0->16] [0 0 0 0->0]
r 15.042287413 _7_ RTR  --- 9 DSR 32 [0 ffffffff 1 800] ------- [1:255 23:255 32 0] 1 [1 2] [0 2 0 0->16] [0 0 0 0->0]
r 15.042287413 _2_ RTR  --- 9 DSR 32 [0 ffffffff 1 800] ------- [1:255 23:255 32 0] 1 [1 2] [0 2 0 0->16] [0 0 0 0->0]
r 15.042287492 _3_ RTR  --- 9 DSR 32 [0 ffffffff 1 800] ------- [1:255 23:255 32 0] 1 [1 2] [0 2 0 0->16] [0 0 0 0->0]
r 15.042287492 _24_ RTR  --- 9 DSR 32 [0 ffffffff 1 800] ------- [1:255 23:255 32 0] 1 [1 2] [0 2 0 0->16] [0 0 0 0->0]
r 15.042287492 _5_ RTR  --- 9 DSR 32 [0 ffffffff 1 800] ------- [1:255 23:255 32 0] 1 [1 2] [0 2 0 0->16] [0 0 0 0->0]
f 15.043879395 _4_ RTR  --- 9 DSR 48 [0 ffffffff 1 800] ------- [1:255 23:255 32 0] 2 [1 2] [0 2 0 0->16] [0 0 0 0->0]
r 15.045139729 _1_ RTR  --- 9 DSR 48 [0 ffffffff 4 800] ------- [1:255 23:255 32 0] 2 [1 2] [0 2 0 0->16] [0 0 0 0->0]
r 15.045139729 _7_ RTR  --- 9 DSR 48 [0 ffffffff 4 800] ------- [1:255 23:255 32 0] 2 [1 2] [0 2 0 0->16] [0 0 0 0->0]
r 15.045139867 _24_ RTR  --- 9 DSR 48 [0 ffffffff 4 800] ------- [1:255 23:255 32 0] 2 [1 2] [0 2 0 0->16] [0 0 0 0->0]
r 15.045140062 _3_ RTR  --- 9 DSR 48 [0 ffffffff 4 800] ------- [1:255 23:255 32 0] 2 [1 2] [0 2 0 0->16] [0 0 0 0->0]
r 15.045140062 _10_ RTR  --- 9 DSR 48 [0 ffffffff 4 800] ------- [1:255 23:255 32 0] 2 [1 2] [0 2 0 0->16] [0 0 0 0->0]
r 15.045140062 _5_ RTR  --- 9 DSR 48 [0 ffffffff 4 800] ------- [1:255 23:255 32 0] 2 [1 2] [0 2 0 0->16] [0 0 0 0->0]
r 15.045140141 _23_ RTR  --- 9 DSR 48 [0 ffffffff 4 800] ------- [1:255 23:255 32 0] 2 [1 2] [0 2 0 0->16] [0 0 0 0->0]
r 15.045140141 _6_ RTR  --- 9 DSR 48 [0 ffffffff 4 800] ------- [1:255 23:255 32 0] 2 [1 2] [0 2 0 0->16] [0 0 0 0->0]
r 15.045140141 _0_ RTR  --- 9 DSR 48 [0 ffffffff 4 800] ------- [1:255 23:255 32 0] 2 [1 2] [0 2 0 0->16] [0 0 0 0->0]
r 15.045140141 _22_ RTR  --- 9 DSR 48 [0 ffffffff 4 800] ------- [1:255 23:255 32 0] 2 [1 2] [0 2 0 0->16] [0 0 0 0->0]
r 15.045140141 _2_ RTR  --- 9 DSR 48 [0 ffffffff 4 800] ------- [1:255 23:255 32 0] 2 [1 2] [0 2 0 0->16] [0 0 0 0->0]
r 15.045140141 _8_ RTR  --- 9 DSR 48 [0 ffffffff 4 800] ------- [1:255 23:255 32 0] 2 [1 2] [0 2 0 0->16] [0 0 0 0->0]
f 15.045226761 _7_ RTR  --- 9 DSR 48 [0 ffffffff 1 800] ------- [1:255 23:255 32 0] 2 [1 2] [0 2 0 0->16] [0 0 0 0->0]
r 15.046367094 _4_ RTR  --- 9 DSR 48 [0 ffffffff 7 800] ------- [1:255 23:255 32 0] 2 [1 2] [0 2 0 0->16] [0 0 0 0->0]
r 15.046367094 _10_ RTR  --- 9 DSR 48 [0 ffffffff 7 800] ------- [1:255 23:255 32 0] 2 [1 2] [0 2 0 0->16] [0 0 0 0->0]
r 15.046367094 _24_ RTR  --- 9 DSR 48 [0 ffffffff 7 800] ------- [1:255 23:255 32 0] 2 [1 2] [0 2 0 0->16] [0 0 0 0->0]
r 15.046367232 _23_ RTR  --- 9 DSR 48 [0 ffffffff 7 800] ------- [1:255 23:255 32 0] 2 [1 2] [0 2 0 0->16] [0 0 0 0->0]
r 15.046367232 _22_ RTR  --- 9 DSR 48 [0 ffffffff 7 800] ------- [1:255 23:255 32 0] 2 [1 2] [0 2 0 0->16] [0 0 0 0->0]
r 15.046367427 _1_ RTR  --- 9 DSR 48 [0 ffffffff 7 800] ------- [1:255 23:255 32 0] 2 [1 2] [0 2 0 0->16] [0 0 0 0->0]
r 15.046367427 _6_ RTR  --- 9 DSR 48 [0 ffffffff 7 800] ------- [1:255 23:255 32 0] 2 [1 2] [0 2 0 0->16] [0 0 0 0->0]
r 15.046367427 _13_ RTR  --- 9 DSR 48 [0 ffffffff 7 800] ------- [1:255 23:255 32 0] 2 [1 2] [0 2 0 0->16] [0 0 0 0->0]
r 15.046367427 _8_ RTR  --- 9 DSR 48 [0 ffffffff 7 800] ------- [1:255 23:255 32 0] 2 [1 2] [0 2 0 0->16] [0 0 0 0->0]
r 15.046367506 _21_ RTR  --- 9 DSR 48 [0 ffffffff 7 800] ------- [1:255 23:255 32 0] 2 [1 2] [0 2 0 0->16] [0 0 0 0->0]
r 15.046367506 _9_ RTR  --- 9 DSR 48 [0 ffffffff 7 800] ------- [1:255 23:255 32 0] 2 [1 2] [0 2 0 0->16] [0 0 0 0->0]
r 15.046367506 _3_ RTR  --- 9 DSR 48 [0 ffffffff 7 800] ------- [1:255 23:255 32 0] 2 [1 2] [0 2 0 0->16] [0 0 0 0->0]
r 15.046367506 _20_ RTR  --- 9 DSR 48 [0 ffffffff 7 800] ------- [1:255 23:255 32 0] 2 [1 2] [0 2 0 0->16] [0 0 0 0->0]
r 15.046367506 _5_ RTR  --- 9 DSR 48 [0 ffffffff 7 800] ------- [1:255 23:255 32 0] 2 [1 2] [0 2 0 0->16] [0 0 0 0->0]
r 15.046367506 _11_ RTR  --- 9 DSR 48 [0 ffffffff 7 800] ------- [1:255 23:255 32 0] 2 [1 2] [0 2 0 0->16] [0 0 0 0->0]
f 15.046374180 _24_ RTR  --- 9 DSR 48 [0 ffffffff 1 800] ------- [1:255 23:255 32 0] 2 [1 2] [0 2 0 0->16] [0 0 0 0->0]
f 15.046609718 _3_ RTR  --- 9 DSR 48 [0 ffffffff 1 800] ------- [1:255 23:255 32 0] 2 [1 2] [0 2 0 0->16] [0 0 0 0->0]
f 15.047025520 _2_ RTR  --- 9 DSR 48 [0 ffffffff 1 800] ------- [1:255 23:255 32 0] 2 [1 2] [0 2 0 0->16] [0 0 0 0->0]
r 15.047670052 _0_ RTR  --- 9 DSR 48 [0 ffffffff 3 800] ------- [1:255 23:255 32 0] 2 [1 2] [0 2 0 0->16] [0 0 0 0->0]
r 15.047670052 _6_ RTR  --- 9 DSR 48 [0 ffffffff 3 800] ------- [1:255 23:255 32 0] 2 [1 2] [0 2 0 0->16] [0 0 0 0->0]
r 15.047670385 _9_ RTR  --- 9 DSR 48 [0 ffffffff 3 800] ------- [1:255 23:255 32 0] 2 [1 2] [0 2 0 0->16] [0 0 0 0->0]
r 15.047670385 _4_ RTR  --- 9 DSR 48 [0 ffffffff 3 800] ------- [1:255 23:255 32 0] 2 [1 2] [0 2 0 0->16] [0 0 0 0->0]
r 15.047670464 _23_ RTR  --- 9 DSR 48 [0 ffffffff 3 800] ------- [1:255 23:255 32 0] 2 [1 2] [0 2 0 0->16] [0 0 0 0->0]
r 15.047670464 _1_ RTR  --- 9 DSR 48 [0 ffffffff 3 800] ------- [1:255 23:255 32 0] 2 [1 2] [0 2 0 0->16] [0 0 0 0->0]
r 15.047670464 _7_ RTR  --- 9 DSR 48 [0 ffffffff 3 800] ------- [1:255 23:255 32 0] 2 [1 2] [0 2 0 0->16] [0 0 0 0->0]
f 15.048212258 _21_ RTR  --- 9 DSR 68 [0 ffffffff 7 800] ------- [1:255 23:255 32 0] 3 [1 2] [0 2 0 0->16] [0 0 0 0->0]
s 15.048213770 _23_ RTR  --- 12 DSR 52 [0 0 0 0] ------- [23:255 1:255 254 3] 3 [0 2] [1 2 3 1->23] [0 0 0 0->0]
f 15.048491324 _8_ RTR  --- 9 DSR 68 [0 ffffffff 4 800] ------- [1:255 23:255 32 0] 3 [1 2] [0 2 0 0->16] [0 0 0 0->0]
f 15.048642635 _11_ RTR  --- 9 DSR 68 [0 ffffffff 7 800] ------- [1:255 23:255 32 0] 3 [1 2] [0 2 0 0->16] [0 0 0 0->0]
r 15.048945426 _5_ RTR  --- 9 DSR 48 [0 ffffffff 2 800] ------- [1:255 23:255 32 0] 2 [1 2] [0 2 0 0->16] [0 0 0 0->0]
r 15.048945759 _1_ RTR  --- 9 DSR 48 [0 ffffffff 2 800] ------- [1:255 23:255 32 0] 2 [1 2] [0 2 0 0->16] [0 0 0 0->0]
r 15.048945759 _8_ RTR  --- 9 DSR 48 [0 ffffffff 2 800] ------- [1:255 23:255 32 0] 2 [1 2] [0 2 0 0->16] [0 0 0 0->0]
r 15.048945838 _24_ RTR  --- 9 DSR 48 [0 ffffffff 2 800] ------- [1:255 23:255 32 0] 2 [1 2] [0 2 0 0->16] [0 0 0 0->0]
r 15.048945838 _4_ RTR  --- 9 DSR 48 [0 ffffffff 2 800] ------- [1:255 23:255 32 0] 2 [1 2] [0 2 0 0->16] [0 0 0 0->0]
r 15.049916171 _22_ RTR  --- 9 DSR 48 [0 ffffffff 18 800] ------- [1:255 23:255 32 0] 2 [1 2] [0 2 0 0->16] [0 0 0 0->0]
r 15.049916171 _7_ RTR  --- 9 DSR 48 [0 ffffffff 18 800] ------- [1:255 23:255 32 0] 2 [1 2] [0 2 0 0->16] [0 0 0 0->0]
r 15.049916171 _8_ RTR  --- 9 DSR 48 [0 ffffffff 18 800] ------- [1:255 23:255 32 0] 2 [1 2] [0 2 0 0->16] [0 0 0 0->0]
r 15.049916309 _10_ RTR  --- 9 DSR 48 [0 ffffffff 18 800] ------- [1:255 23:255 32 0] 2 [1 2] [0 2 0 0->16] [0 0 0 0->0]
r 15.049916309 _4_ RTR  --- 9 DSR 48 [0 ffffffff 18 800] ------- [1:255 23:255 32 0] 2 [1 2] [0 2 0 0->16] [0 0 0 0->0]
r 15.049916309 _5_ RTR  --- 9 DSR 48 [0 ffffffff 18 800] ------- [1:255 23:255 32 0] 2 [1 2] [0 2 0 0->16] [0 0 0 0->0]
r 15.049916309 _11_ RTR  --- 9 DSR 48 [0 ffffffff 18 800] ------- [1:255 23:255 32 0] 2 [1 2] [0 2 0 0->16] [0 0 0 0->0]
r 15.049916505 _20_ RTR  --- 9 DSR 48 [0 ffffffff 18 800] ------- [1:255 23:255 32 0] 2 [1 2] [0 2 0 0->16] [0 0 0 0->0]
r 15.049916583 _13_ RTR  --- 9 DSR 48 [0 ffffffff 18 800] ------- [1:255 23:255 32 0] 2 [1 2] [0 2 0 0->16] [0 0 0 0->0]
r 15.049916583 _1_ RTR  --- 9 DSR 48 [0 ffffffff 18 800] ------- [1:255 23:255 32 0] 2 [1 2] [0 2 0 0->16] [0 0 0 0->0]
r 15.049916583 _23_ RTR  --- 9 DSR 48 [0 ffffffff 18 800] ------- [1:255 23:255 32 0] 2 [1 2] [0 2 0 0->16] [0 0 0 0->0]
r 15.049916583 _2_ RTR  --- 9 DSR 48 [0 ffffffff 18 800] ------- [1:255 23:255 32 0] 2 [1 2] [0 2 0 0->16] [0 0 0 0->0]
r 15.049916583 _14_ RTR  --- 9 DSR 48 [0 ffffffff 18 800] ------- [1:255 23:255 32 0] 2 [1 2] [0 2 0 0->16] [0 0 0 0->0]
s 15.050553545 _23_ RTR  --- 13 DSR 52 [0 0 0 0] ------- [23:255 1:255 254 24] 3 [0 2] [1 2 3 1->23] [0 0 0 0->0]
f 15.051032856 _6_ RTR  --- 9 DSR 68 [0 ffffffff 4 800] ------- [1:255 23:255 32 0] 3 [1 2] [0 2 0 0->16] [0 0 0 0->0]
r 15.051046505 _5_ RTR  --- 9 DSR 68 [0 ffffffff 8 800] ------- [1:255 23:255 32 0] 3 [1 2] [0 2 0 0->16] [0 0 0 0->0]
r 15.051046505 _24_ RTR  --- 9 DSR 68 [0 ffffffff 8 800] ------- [1:255 23:255 32 0] 3 [1 2] [0 2 0 0->16] [0 0 0 0->0]
r 15.051046505 _11_ RTR  --- 9 DSR 68 [0 ffffffff 8 800] ------- [1:255 23:255 32 0] 3 [1 2] [0 2 0 0->16] [0 0 0 0->0]
r 15.051046643 _22_ RTR  --- 9 DSR 68 [0 ffffffff 8 800] ------- [1:255 23:255 32 0] 3 [1 2] [0 2 0 0->16] [0 0 0 0->0]
r 15.051046838 _2_ RTR  --- 9 DSR 68 [0 ffffffff 8 800] ------- [1:255 23:255 32 0] 3 [1 2] [0 2 0 0->16] [0 0 0 0->0]
r 15.051046838 _7_ RTR  --- 9 DSR 68 [0 ffffffff 8 800] ------- [1:255 23:255 32 0] 3 [1 2] [0 2 0 0->16] [0 0 0 0->0]
r 15.051046838 _14_ RTR  --- 9 DSR 68 [0 ffffffff 8 800] ------- [1:255 23:255 32 0] 3 [1 2] [0 2 0 0->16] [0 0 0 0->0]
r 15.051046917 _20_ RTR  --- 9 DSR 68 [0 ffffffff 8 800] ------- [1:255 23:255 32 0] 3 [1 2] [0 2 0 0->16] [0 0 0 0->0]
r 15.051046917 _10_ RTR  --- 9 DSR 68 [0 ffffffff 8 800] ------- [1:255 23:255 32 0] 3 [1 2] [0 2 0 0->16] [0 0 0 0->0]
r 15.051046917 _4_ RTR  --- 9 DSR 68 [0 ffffffff 8 800] ------- [1:255 23:255 32 0] 3 [1 2] [0 2 0 0->16] [0 0 0 0->0]
f 15.051383817 _5_ RTR  --- 9 DSR 48 [0 ffffffff 1 800] ------- [1:255 23:255 32 0] 2 [1 2] [0 2 0 0->16] [0 0 0 0->0]
f 15.051902312 _10_ RTR  --- 9 DSR 68 [0 ffffffff 4 800] ------- [1:255 23:255 32 0] 3 [1 2] [0 2 0 0->16] [0 0 0 0->0]
f 15.052181787 _0_ RTR  --- 9 DSR 48 [0 ffffffff 1 800] ------- [1:255 23:255 32 0] 2 [1 2] [0 2 0 0->16] [0 0 0 0->0]
r 15.052296838 _8_ RTR  --- 9 DSR 68 [0 ffffffff b 800] ------- [1:255 23:255 32 0] 3 [1 2] [0 2 0 0->16] [0 0 0 0->0]
r 15.052296838 _22_ RTR  --- 9 DSR 68 [0 ffffffff b 800] ------- [1:255 23:255 32 0] 3 [1 2] [0 2 0 0->16] [0 0 0 0->0]
r 15.052296838 _14_ RTR  --- 9 DSR 68 [0 ffffffff b 800] ------- [1:255 23:255 32 0] 3 [1 2] [0 2 0 0->16] [0 0 0 0->0]
r 15.052296976 _24_ RTR  --- 9 DSR 68 [0 ffffffff b 800] ------- [1:255 23:255 32 0] 3 [1 2] [0 2 0 0->16] [0 0 0 0->0]
r 15.052296976 _20_ RTR  --- 9 DSR 68 [0 ffffffff b 800] ------- [1:255 23:255 32 0] 3 [1 2] [0 2 0 0->16] [0 0 0 0->0]
r 15.052297171 _5_ RTR  --- 9 DSR 68 [0 ffffffff b 800] ------- [1:255 23:255 32 0] 3 [1 2] [0 2 0 0->16] [0 0 0 0->0]
r 15.052297171 _10_ RTR  --- 9 DSR 68 [0 ffffffff b 800] ------- [1:255 23:255 32 0] 3 [1 2] [0 2 0 0->16] [0 0 0 0->0]
r 15.052297171 _17_ RTR  --- 9 DSR 68 [0 ffffffff b 800] ------- [1:255 23:255 32 0] 3 [1 2] [0 2 0 0->16] [0 0 0 0->0]
r 15.052297250 _18_ RTR  --- 9 DSR 68 [0 ffffffff b 800] ------- [1:255 23:255 32 0] 3 [1 2] [0 2 0 0->16] [0 0 0 0->0]
r 15.052297250 _13_ RTR  --- 9 DSR 68 [0 ffffffff b 800] ------- [1:255 23:255 32 0] 3 [1 2] [0 2 0 0->16] [0 0 0 0->0]
r 15.052297250 _7_ RTR  --- 9 DSR 68 [0 ffffffff b 800] ------- [1:255 23:255 32 0] 3 [1 2] [0 2 0 0->16] [0 0 0 0->0]
f 15.052586198 _13_ RTR  --- 9 DSR 68 [0 ffffffff 7 800] ------- [1:255 23:255 32 0] 3 [1 2] [0 2 0 0->16] [0 0 0 0->0]
s 15.052789434 _0_ RTR  --- 14 DSR 32 [0 0 0 0] ------- [0:255 23:255 32 0] 1 [1 2] [0 2 0 0->16] [0 0 0 0->0]
s 15.052888133 _23_ RTR  --- 10 DSR 52 [0 0 0 0] ------- [23:255 1:255 254 4] 3 [0 2] [1 2 3 1->23] [0 0 0 0->0]
s 15.053214651 _23_ RTR  --- 11 DSR 52 [0 0 0 0] ------- [23:255 1:255 254 7] 3 [0 2] [1 2 3 1->23] [0 0 0 0->0]
r 15.053247505 _2_ RTR  --- 9 DSR 48 [0 ffffffff 5 800] ------- [1:255 23:255 32 0] 2 [1 2] [0 2 0 0->16] [0 0 0 0->0]
r 15.053247505 _8_ RTR  --- 9 DSR 48 [0 ffffffff 5 800] ------- [1:255 23:255 32 0] 2 [1 2] [0 2 0 0->16] [0 0 0 0->0]
r 15.053247643 _24_ RTR  --- 9 DSR 48 [0 ffffffff 5 800] ------- [1:255 23:255 32 0] 2 [1 2] [0 2 0 0->16] [0 0 0 0->0]
r 15.053247838 _4_ RTR  --- 9 DSR 48 [0 ffffffff 5 800] ------- [1:255 23:255 32 0] 2 [1 2] [0 2 0 0->16] [0 0 0 0->0]
r 15.053247838 _11_ RTR  --- 9 DSR 48 [0 ffffffff 5 800] ------- [1:255 23:255 32 0] 2 [1 2] [0 2 0 0->16] [0 0 0 0->0]
r 15.053247917 _22_ RTR  --- 9 DSR 48 [0 ffffffff 5 800] ------- [1:255 23:255 32 0] 2 [1 2] [0 2 0 0->16] [0 0 0 0->0]
r 15.053247917 _7_ RTR  --- 9 DSR 48 [0 ffffffff 5 800] ------- [1:255 23:255 32 0] 2 [1 2] [0 2 0 0->16] [0 0 0 0->0]
r 15.053247917 _1_ RTR  --- 9 DSR 48 [0 ffffffff 5 800] ------- [1:255 23:255 32 0] 2 [1 2] [0 2 0 0->16] [0 0 0 0->0]
f 15.053304411 _14_ RTR  --- 9 DSR 68 [0 ffffffff 18 800] ------- [1:255 23:255 32 0] 3 [1 2] [0 2 0 0->16] [0 0 0 0->0]
f 15.053703623 _9_ RTR  --- 9 DSR 68 [0 ffffffff 7 800] ------- [1:255 23:255 32 0] 3 [1 2] [0 2 0 0->16] [0 0 0 0->0]
r 15.054522879 _3_ RTR  --- 9 DSR 48 [0 ffffffff 0 800] ------- [1:255 23:255 32 0] 2 [1 2] [0 2 0 0->16] [0 0 0 0->0]
f 15.054615904 _22_ RTR  --- 9 DSR 68 [0 ffffffff 4 800] ------- [1:255 23:255 32 0] 3 [1 2] [0 2 0 0->16] [0 0 0 0->0]
r 15.054682448 _7_ RTR  --- 9 DSR 68 [0 ffffffff a 800] ------- [1:255 23:255 32 0] 3 [1 2] [0 2 0 0->16] [0 0 0 0->0]
r 15.054682448 _23_ RTR  --- 9 DSR 68 [0 ffffffff a 800] ------- [1:255 23:255 32 0] 3 [1 2] [0 2 0 0->16] [0 0 0 0->0]
r 15.054682448 _13_ RTR  --- 9 DSR 68 [0 ffffffff a 800] ------- [1:255 23:255 32 0] 3 [1 2] [0 2 0 0->16] [0 0 0 0->0]
r 15.054682448 _22_ RTR  --- 9 DSR 68 [0 ffffffff a 800] ------- [1:255 23:255 32 0] 3 [1 2] [0 2 0 0->16] [0 0 0 0->0]
r 15.054682586 _21_ RTR  --- 9 DSR 68 [0 ffffffff a 800] ------- [1:255 23:255 32 0] 3 [1 2] [0 2 0 0->16] [0 0 0 0->0]
r 15.054682586 _20_ RTR  --- 9 DSR 68 [0 ffffffff a 800] ------- [1:255 23:255 32 0] 3 [1 2] [0 2 0 0->16] [0 0 0 0->0]
r 15.054682586 _24_ RTR  --- 9 DSR 68 [0 ffffffff a 800] ------- [1:255 23:255 32 0] 3 [1 2] [0 2 0 0->16] [0 0 0 0->0]
r 15.054682781 _16_ RTR  --- 9 DSR 68 [0 ffffffff a 800] ------- [1:255 23:255 32 0] 3 [1 2] [0 2 0 0->16] [0 0 0 0->0]
r 15.054682781 _11_ RTR  --- 9 DSR 68 [0 ffffffff a 800] ------- [1:255 23:255 32 0] 3 [1 2] [0 2 0 0->16] [0 0 0 0->0]
r 15.054682860 _19_ RTR  --- 9 DSR 68 [0 ffffffff a 800] ------- [1:255 23:255 32 0] 3 [1 2] [0 2 0 0->16] [0 0 0 0->0]
r 15.054682860 _12_ RTR  --- 9 DSR 68 [0 ffffffff a 800] ------- [1:255 23:255 32 0] 3 [1 2] [0 2 0 0->16] [0 0 0 0->0]
r 15.054682860 _18_ RTR  --- 9 DSR 68 [0 ffffffff a 800] ------- [1:255 23:255 32 0] 3 [1 2] [0 2 0 0->16] [0 0 0 0->0]
r 15.054682860 _8_ RTR  --- 9 DSR 68 [0 ffffffff a 800] ------- [1:255 23:255 32 0] 3 [1 2] [0 2 0 0->16] [0 0 0 0->0]
r 15.054682860 _14_ RTR  --- 9 DSR 68 [0 ffffffff a 800] ------- [1:255 23:255 32 0] 3 [1 2] [0 2 0 0->16] [0 0 0 0->0]
f 15.054783034 _18_ RTR  --- 9 DSR 92 [0 ffffffff b 800] ------- [1:255 23:255 32 0] 4 [1 2] [0 2 0 0->16] [0 0 0 0->0]
s 15.054948200 _3_ RTR  --- 16 DSR 32 [0 0 0 0] ------- [3:255 21:255 32 0] 1 [1 2] [0 2 0 0->16] [0 0 0 0->0]
f 15.055499339 _20_ RTR  --- 9 DSR 68 [0 ffffffff 7 800] ------- [1:255 23:255 32 0] 3 [1 2] [0 2 0 0->16] [0 0 0 0->0]
s 15.055811897 _23_ RTR  --- 15 DSR 60 [0 0 0 0] ------- [23:255 1:255 254 10] 4 [0 2] [1 2 4 1->23] [0 0 0 0->0]
r 15.055933193 _11_ RTR  --- 9 DSR 68 [0 ffffffff e 800] ------- [1:255 23:255 32 0] 3 [1 2] [0 2 0 0->16] [0 0 0 0->0]
r 15.055933193 _20_ RTR  --- 9 DSR 68 [0 ffffffff e 800] ------- [1:255 23:255 32 0] 3 [1 2] [0 2 0 0->16] [0 0 0 0->0]
r 15.055933193 _17_ RTR  --- 9 DSR 68 [0 ffffffff e 800] ------- [1:255 23:255 32 0] 3 [1 2] [0 2 0 0->16] [0 0 0 0->0]
r 15.055933331 _22_ RTR  --- 9 DSR 68 [0 ffffffff e 800] ------- [1:255 23:255 32 0] 3 [1 2] [0 2 0 0->16] [0 0 0 0->0]
r 15.055933331 _18_ RTR  --- 9 DSR 68 [0 ffffffff e 800] ------- [1:255 23:255 32 0] 3 [1 2] [0 2 0 0->16] [0 0 0 0->0]
r 15.055933526 _8_ RTR  --- 9 DSR 68 [0 ffffffff e 800] ------- [1:255 23:255 32 0] 3 [1 2] [0 2 0 0->16] [0 0 0 0->0]
r 15.055933526 _13_ RTR  --- 9 DSR 68 [0 ffffffff e 800] ------- [1:255 23:255 32 0] 3 [1 2] [0 2 0 0->16] [0 0 0 0->0]
r 15.055933605 _16_ RTR  --- 9 DSR 68 [0 ffffffff e 800] ------- [1:255 23:255 32 0] 3 [1 2] [0 2 0 0->16] [0 0 0 0->0]
r 15.057335664 _16_ RTR  --- 9 DSR 92 [0 ffffffff 12 800] ------- [1:255 23:255 32 0] 4 [1 2] [0 2 0 0->16] [0 0 0 0->0]
r 15.057335664 _20_ RTR  --- 9 DSR 92 [0 ffffffff 12 800] ------- [1:255 23:255 32 0] 4 [1 2] [0 2 0 0->16] [0 0 0 0->0]
r 15.057335664 _17_ RTR  --- 9 DSR 92 [0 ffffffff 12 800] ------- [1:255 23:255 32 0] 4 [1 2] [0 2 0 0->16] [0 0 0 0->0]
r 15.057335802 _13_ RTR  --- 9 DSR 92 [0 ffffffff 12 800] ------- [1:255 23:255 32 0] 4 [1 2] [0 2 0 0->16] [0 0 0 0->0]
r 15.057335802 _14_ RTR  --- 9 DSR 92 [0 ffffffff 12 800] ------- [1:255 23:255 32 0] 4 [1 2] [0 2 0 0->16] [0 0 0 0->0]
r 15.057335998 _22_ RTR  --- 9 DSR 92 [0 ffffffff 12 800] ------- [1:255 23:255 32 0] 4 [1 2] [0 2 0 0->16] [0 0 0 0->0]
r 15.057336076 _11_ RTR  --- 9 DSR 92 [0 ffffffff 12 800] ------- [1:255 23:255 32 0] 4 [1 2] [0 2 0 0->16] [0 0 0 0->0]
r 15.058646331 _20_ RTR  --- 9 DSR 68 [0 ffffffff 16 800] ------- [1:255 23:255 32 0] 3 [1 2] [0 2 0 0->16] [0 0 0 0->0]
r 15.058646331 _10_ RTR  --- 9 DSR 68 [0 ffffffff 16 800] ------- [1:255 23:255 32 0] 3 [1 2] [0 2 0 0->16] [0 0 0 0->0]
r 15.058646331 _24_ RTR  --- 9 DSR 68 [0 ffffffff 16 800] ------- [1:255 23:255 32 0] 3 [1 2] [0 2 0 0->16] [0 0 0 0->0]
r 15.058646331 _11_ RTR  --- 9 DSR 68 [0 ffffffff 16 800] ------- [1:255 23:255 32 0] 3 [1 2] [0 2 0 0->16] [0 0 0 0->0]
r 15.058646469 _13_ RTR  --- 9 DSR 68 [0 ffffffff 16 800] ------- [1:255 23:255 32 0] 3 [1 2] [0 2 0 0->16] [0 0 0 0->0]
r 15.058646469 _7_ RTR  --- 9 DSR 68 [0 ffffffff 16 800] ------- [1:255 23:255 32 0] 3 [1 2] [0 2 0 0->16] [0 0 0 0->0]
r 15.058646469 _8_ RTR  --- 9 DSR 68 [0 ffffffff 16 800] ------- [1:255 23:255 32 0] 3 [1 2] [0 2 0 0->16] [0 0 0 0->0]
r 15.058646469 _14_ RTR  --- 9 DSR 68 [0 ffffffff 16 800] ------- [1:255 23:255 32 0] 3 [1 2] [0 2 0 0->16] [0 0 0 0->0]
r 15.058646664 _18_ RTR  --- 9 DSR 68 [0 ffffffff 16 800] ------- [1:255 23:255 32 0] 3 [1 2] [0 2 0 0->16] [0 0 0 0->0]
r 15.058646664 _23_ RTR  --- 9 DSR 68 [0 ffffffff 16 800] ------- [1:255 23:255 32 0] 3 [1 2] [0 2 0 0->16] [0 0 0 0->0]
r 15.058646743 _16_ RTR  --- 9 DSR 68 [0 ffffffff 16 800] ------- [1:255 23:255 32 0] 3 [1 2] [0 2 0 0->16] [0 0 0 0->0]
r 15.058646743 _4_ RTR  --- 9 DSR 68 [0 ffffffff 16 800] ------- [1:255 23:255 32 0] 3 [1 2] [0 2 0 0->16] [0 0 0 0->0]
r 15.058646743 _21_ RTR  --- 9 DSR 68 [0 ffffffff 16 800] ------- [1:255 23:255 32 0] 3 [1 2] [0 2 0 0->16] [0 0 0 0->0]
r 15.058646743 _5_ RTR  --- 9 DSR 68 [0 ffffffff 16 800] ------- [1:255 23:255 32 0] 3 [1 2] [0 2 0 0->16] [0 0 0 0->0]
r 15.058646743 _17_ RTR  --- 9 DSR 68 [0 ffffffff 16 800] ------- [1:255 23:255 32 0] 3 [1 2] [0 2 0 0->16] [0 0 0 0->0]
r 15.059676664 _18_ RTR  --- 9 DSR 68 [0 ffffffff 14 800] ------- [1:255 23:255 32 0] 3 [1 2] [0 2 0 0->16] [0 0 0 0->0]
r 15.059676664 _13_ RTR  --- 9 DSR 68 [0 ffffffff 14 800] ------- [1:255 23:255 32 0] 3 [1 2] [0 2 0 0->16] [0 0 0 0->0]
r 15.059676664 _22_ RTR  --- 9 DSR 68 [0 ffffffff 14 800] ------- [1:255 23:255 32 0] 3 [1 2] [0 2 0 0->16] [0 0 0 0->0]
r 15.059676664 _14_ RTR  --- 9 DSR 68 [0 ffffffff 14 800] ------- [1:255 23:255 32 0] 3 [1 2] [0 2 0 0->16] [0 0 0 0->0]
r 15.059676802 _16_ RTR  --- 9 DSR 68 [0 ffffffff 14 800] ------- [1:255 23:255 32 0] 3 [1 2] [0 2 0 0->16] [0 0 0 0->0]
r 15.059676802 _10_ RTR  --- 9 DSR 68 [0 ffffffff 14 800] ------- [1:255 23:255 32 0] 3 [1 2] [0 2 0 0->16] [0 0 0 0->0]
r 15.059676802 _11_ RTR  --- 9 DSR 68 [0 ffffffff 14 800] ------- [1:255 23:255 32 0] 3 [1 2] [0 2 0 0->16] [0 0 0 0->0]
r 15.059676802 _17_ RTR  --- 9 DSR 68 [0 ffffffff 14 800] ------- [1:255 23:255 32 0] 3 [1 2] [0 2 0 0->16] [0 0 0 0->0]
r 15.059676998 _21_ RTR  --- 9 DSR 68 [0 ffffffff 14 800] ------- [1:255 23:255 32 0] 3 [1 2] [0 2 0 0->16] [0 0 0 0->0]
r 15.059676998 _24_ RTR  --- 9 DSR 68 [0 ffffffff 14 800] ------- [1:255 23:255 32 0] 3 [1 2] [0 2 0 0->16] [0 0 0 0->0]
r 15.059677076 _7_ RTR  --- 9 DSR 68 [0 ffffffff 14 800] ------- [1:255 23:255 32 0] 3 [1 2] [0 2 0 0->16] [0 0 0 0->0]
r 15.059677076 _23_ RTR  --- 9 DSR 68 [0 ffffffff 14 800] ------- [1:255 23:255 32 0] 3 [1 2] [0 2 0 0->16] [0 0 0 0->0]
r 15.059677076 _19_ RTR  --- 9 DSR 68 [0 ffffffff 14 800] ------- [1:255 23:255 32 0] 3 [1 2] [0 2 0 0->16] [0 0 0 0->0]
r 15.059677076 _8_ RTR  --- 9 DSR 68 [0 ffffffff 14 800] ------- [1:255 23:255 32 0] 3 [1 2] [0 2 0 0->16] [0 0 0 0->0]
f 15.060084084 _16_ RTR  --- 9 DSR 92 [0 ffffffff a 800] ------- [1:255 23:255 32 0] 4 [1 2] [0 2 0 0->16] [0 0 0 0->0]
s 15.060476475 _23_ RTR  --- 17 DSR 60 [0 0 0 0] ------- [23:255 1:255 254 22] 4 [0 2] [1 2 4 1->23] [0 0 0 0->0]
r 15.060726998 _10_ RTR  --- 9 DSR 68 [0 ffffffff d 800] ------- [1:255 23:255 32 0] 3 [1 2] [0 2 0 0->16] [0 0 0 0->0]
r 15.060726998 _21_ RTR  --- 9 DSR 68 [0 ffffffff d 800] ------- [1:255 23:255 32 0] 3 [1 2] [0 2 0 0->16] [0 0 0 0->0]
r 15.060726998 _16_ RTR  --- 9 DSR 68 [0 ffffffff d 800] ------- [1:255 23:255 32 0] 3 [1 2] [0 2 0 0->16] [0 0 0 0->0]
r 15.060726998 _20_ RTR  --- 9 DSR 68 [0 ffffffff d 800] ------- [1:255 23:255 32 0] 3 [1 2] [0 2 0 0->16] [0 0 0 0->0]
r 15.060727136 _23_ RTR  --- 9 DSR 68 [0 ffffffff d 800] ------- [1:255 23:255 32 0] 3 [1 2] [0 2 0 0->16] [0 0 0 0->0]
r 15.060727136 _19_ RTR  --- 9 DSR 68 [0 ffffffff d 800] ------- [1:255 23:255 32 0] 3 [1 2] [0 2 0 0->16] [0 0 0 0->0]
r 15.060727136 _18_ RTR  --- 9 DSR 68 [0 ffffffff d 800] ------- [1:255 23:255 32 0] 3 [1 2] [0 2 0 0->16] [0 0 0 0->0]
r 15.060727136 _22_ RTR  --- 9 DSR 68 [0 ffffffff d 800] ------- [1:255 23:255 32 0] 3 [1 2] [0 2 0 0->16] [0 0 0 0->0]
r 15.060727331 _7_ RTR  --- 9 DSR 68 [0 ffffffff d 800] ------- [1:255 23:255 32 0] 3 [1 2] [0 2 0 0->16] [0 0 0 0->0]
r 15.060727331 _12_ RTR  --- 9 DSR 68 [0 ffffffff d 800] ------- [1:255 23:255 32 0] 3 [1 2] [0 2 0 0->16] [0 0 0 0->0]
r 15.060727331 _14_ RTR  --- 9 DSR 68 [0 ffffffff d 800] ------- [1:255 23:255 32 0] 3 [1 2] [0 2 0 0->16] [0 0 0 0->0]
r 15.060727410 _15_ RTR  --- 9 DSR 68 [0 ffffffff d 800] ------- [1:255 23:255 32 0] 3 [1 2] [0 2 0 0->16] [0 0 0 0->0]
r 15.060727410 _9_ RTR  --- 9 DSR 68 [0 ffffffff d 800] ------- [1:255 23:255 32 0] 3 [1 2] [0 2 0 0->16] [0 0 0 0->0]
r 15.060727410 _24_ RTR  --- 9 DSR 68 [0 ffffffff d 800] ------- [1:255 23:255 32 0] 3 [1 2] [0 2 0 0->16] [0 0 0 0->0]
r 15.060727410 _11_ RTR  --- 9 DSR 68 [0 ffffffff d 800] ------- [1:255 23:255 32 0] 3 [1 2] [0 2 0 0->16] [0 0 0 0->0]
r 15.060727410 _17_ RTR  --- 9 DSR 68 [0 ffffffff d 800] ------- [1:255 23:255 32 0] 3 [1 2] [0 2 0 0->16] [0 0 0 0->0]
f 15.061489117 _17_ RTR  --- 9 DSR 92 [0 ffffffff b 800] ------- [1:255 23:255 32 0] 4 [1 2] [0 2 0 0->16] [0 0 0 0->0]
s 15.062162056 _23_ RTR  --- 18 DSR 60 [0 0 0 0] ------- [23:255 1:255 254 20] 4 [0 2] [1 2 4 1->23] [0 0 0 0->0]
r 15.062427372 _3_ RTR  --- 12 DSR 52 [13a 3 17 800] ------- [23:255 1:255 254 3] 3 [0 2] [1 2 3 1->23] [0 0 0 0->0]
f 15.062427372 _3_ RTR  --- 12 DSR 52 [13a 3 17 800] ------- [23:255 1:255 253 1] 3 [0 2] [1 2 3 1->23] [0 0 0 0->0]
f 15.062674322 _12_ RTR  --- 9 DSR 92 [0 ffffffff a 800] ------- [1:255 23:255 32 0] 4 [1 2] [0 2 0 0->16] [0 0 0 0->0]
r 15.063563705 _0_ RTR  --- 16 DSR 32 [0 ffffffff 3 800] ------- [3:255 21:255 32 0] 1 [1 2] [0 2 0 0->16] [0 0 0 0->0]
r 15.063563705 _6_ RTR  --- 16 DSR 32 [0 ffffffff 3 800] ------- [3:255 21:255 32 0] 1 [1 2] [0 2 0 0->16] [0 0 0 0->0]
r 15.063564038 _9_ RTR  --- 16 DSR 32 [0 ffffffff 3 800] ------- [3:255 21:255 32 0] 1 [1 2] [0 2 0 0->16] [0 0 0 0->0]
r 15.063564038 _4_ RTR  --- 16 DSR 32 [0 ffffffff 3 800] ------- [3:255 21:255 32 0] 1 [1 2] [0 2 0 0->16] [0 0 0 0->0]
r 15.063564117 _1_ RTR  --- 16 DSR 32 [0 ffffffff 3 800] ------- [3:255 21:255 32 0] 1 [1 2] [0 2 0 0->16] [0 0 0 0->0]
f 15.063899582 _1_ RTR  --- 16 DSR 48 [0 ffffffff 3 800] ------- [3:255 21:255 32 0] 2 [1 2] [0 2 0 0->16] [0 0 0 0->0]
f 15.064081252 _19_ RTR  --- 9 DSR 92 [0 ffffffff a 800] ------- [1:255 23:255 32 0] 4 [1 2] [0 2 0 0->16] [0 0 0 0->0]
f 15.064521883 _4_ RTR  --- 16 DSR 48 [0 ffffffff 3 800] ------- [3:255 21:255 32 0] 2 [1 2] [0 2 0 0->16] [0 0 0 0->0]
r 15.065969216 _19_ RTR  --- 9 DSR 68 [0 ffffffff 15 800] ------- [1:255 23:255 32 0] 3 [1 2] [0 2 0 0->16] [0 0 0 0->0]
r 15.065969216 _12_ RTR  --- 9 DSR 68 [0 ffffffff 15 800] ------- [1:255 23:255 32 0] 3 [1 2] [0 2 0 0->16] [0 0 0 0->0]
r 15.065969216 _23_ RTR  --- 9 DSR 68 [0 ffffffff 15 800] ------- [1:255 23:255 32 0] 3 [1 2] [0 2 0 0->16] [0 0 0 0->0]
r 15.065969216 _13_ RTR  --- 9 DSR 68 [0 ffffffff 15 800] ------- [1:255 23:255 32 0] 3 [1 2] [0 2 0 0->16] [0 0 0 0->0]
r 15.065969354 _15_ RTR  --- 9 DSR 68 [0 ffffffff 15 800] ------- [1:255 23:255 32 0] 3 [1 2] [0 2 0 0->16] [0 0 0 0->0]
r 15.065969354 _9_ RTR  --- 9 DSR 68 [0 ffffffff 15 800] ------- [1:255 23:255 32 0] 3 [1 2] [0 2 0 0->16] [0 0 0 0->0]
r 15.065969354 _10_ RTR  --- 9 DSR 68 [0 ffffffff 15 800] ------- [1:255 23:255 32 0] 3 [1 2] [0 2 0 0->16] [0 0 0 0->0]
r 15.065969354 _16_ RTR  --- 9 DSR 68 [0 ffffffff 15 800] ------- [1:255 23:255 32 0] 3 [1 2] [0 2 0 0->16] [0 0 0 0->0]
r 15.065969549 _20_ RTR  --- 9 DSR 68 [0 ffffffff 15 800] ------- [1:255 23:255 32 0] 3 [1 2] [0 2 0 0->16] [0 0 0 0->0]
r 15.065969628 _6_ RTR  --- 9 DSR 68 [0 ffffffff 15 800] ------- [1:255 23:255 32 0] 3 [1 2] [0 2 0 0->16] [0 0 0 0->0]
r 15.065969628 _7_ RTR  --- 9 DSR 68 [0 ffffffff 15 800] ------- [1:255 23:255 32 0] 3 [1 2] [0 2 0 0->16] [0 0 0 0->0]
r 15.065969628 _18_ RTR  --- 9 DSR 68 [0 ffffffff 15 800] ------- [1:255 23:255 32 0] 3 [1 2] [0 2 0 0->16] [0 0 0 0->0]
r 15.065969628 _22_ RTR  --- 9 DSR 68 [0 ffffffff 15 800] ------- [1:255 23:255 32 0] 3 [1 2] [0 2 0 0->16] [0 0 0 0->0]
r 15.067633452 _20_ RTR  --- 18 DSR 60 [13a 14 17 800] ------- [23:255 1:255 254 20] 4 [0 2] [1 2 4 1->23] [0 0 0 0->0]
f 15.067633452 _20_ RTR  --- 18 DSR 60 [13a 14 17 800] ------- [23:255 1:255 253 7] 4 [0 2] [1 2 4 1->23] [0 0 0 0->0]
f 15.067806785 _9_ RTR  --- 16 DSR 48 [0 ffffffff 3 800] ------- [3:255 21:255 32 0] 2 [1 2] [0 2 0 0->16] [0 0 0 0->0]
s 15.067961091 _23_ RTR  --- 19 DSR 60 [0 0 0 0] ------- [23:255 1:255 254 13] 4 [0 2] [1 2 4 1->23] [0 0 0 0->0]
f 15.068446609 _6_ RTR  --- 16 DSR 48 [0 ffffffff 3 800] ------- [3:255 21:255 32 0] 2 [1 2] [0 2 0 0->16] [0 0 0 0->0]
f 15.069382920 _15_ RTR  --- 9 DSR 92 [0 ffffffff d 800] ------- [1:255 23:255 32 0] 4 [1 2] [0 2 0 0->16] [0 0 0 0->0]
r 15.069592197 _22_ RTR  --- 17 DSR 60 [13a 16 17 800] ------- [23:255 1:255 254 22] 4 [0 2] [1 2 4 1->23] [0 0 0 0->0]