n -t * -s 0  -x 100 -y 100 -Z 0 -z 30  -v circle -c black
n -t * -s 1  -x 200 -y 100 -Z 0 -z 30  -v circle -c black
n -t * -s 2  -x 300 -y 100 -Z 0 -z 30  -v circle -c black
n -t * -s 3  -x 400 -y 100 -Z 0 -z 30  -v circle -c black
n -t * -s 4  -x 500 -y 100 -Z 0 -z 30  -v circle -c black
n -t * -s 5  -x 100 -y 200 -Z 0 -z 30  -v circle -c black
n -t * -s 6  -x 200 -y 200 -Z 0 -z 30  -v circle -c black
n -t * -s 7  -x 300 -y 200 -Z 0 -z 30  -v circle -c black
n -t * -s 8  -x 400 -y 200 -Z 0 -z 30  -v circle -c black
n -t * -s 9  -x 500 -y 200 -Z 0 -z 30  -v circle -c black
n -t * -s 10  -x 100 -y 300 -Z 0 -z 30  -v circle -c black
n -t * -s 11  -x 200 -y 300 -Z 0 -z 30  -v circle -c black
n -t * -s 12  -x 300 -y 300 -Z 0 -z 30  -v circle -c black
n -t * -s 13  -x 400 -y 300 -Z 0 -z 30  -v circle -c black
n -t * -s 14  -x 500 -y 300 -Z 0 -z 30  -v circle -c black
n -t * -s 15  -x 100 -y 400 -Z 0 -z 30  -v circle -c black
n -t * -s 16  -x 200 -y 400 -Z 0 -z 30  -v circle -c black
n -t * -s 17  -x 300 -y 400 -Z 0 -z 30  -v circle -c black
n -t * -s 18  -x 400 -y 400 -Z 0 -z 30  -v circle -c black
n -t * -s 19  -x 500 -y 400 -Z 0 -z 30  -v circle -c black
n -t * -s 20  -x 100 -y 500 -Z 0 -z 30  -v circle -c black
n -t * -s 21  -x 200 -y 500 -Z 0 -z 30  -v circle -c black
n -t * -s 22  -x 300 -y 500 -Z 0 -z 30  -v circle -c black
n -t * -s 23  -x 400 -y 500 -Z 0 -z 30  -v circle -c black
n -t * -s 24  -x 500 -y 500 -Z 0 -z 30  -v circle -c black
V -t * -v 1.0a5 -a 0
W -t * -x 500 -y 500
A -t * -n 1 -p 0 -o 0xffffffff -c 31 -a 1
A -t * -h 1 -m 2147483647 -s 0
+ -t 15.000000000 -s 0 -d -1 -p cbr -e 512 -c 2 -a 0 -i 0 -k AGT 
- -t 15.000000000 -s 0 -d -1 -p cbr -e 512 -c 2 -a 0 -i 0 -k AGT
h -t 15.000000000 -s 0 -d -1 -p cbr -e 512 -c 2 -a 0 -i 0 -k AGT
+ -t 15.000000000 -s 1 -d -1 -p cbr -e 512 -c 2 -a 0 -i 2 -k AGT 
- -t 15.000000000 -s 1 -d -1 -p cbr -e 512 -c 2 -a 0 -i 2 -k AGT
h -t 15.000000000 -s 1 -d -1 -p cbr -e 512 -c 2 -a 0 -i 2 -k AGT
+ -t 15.000000000 -s 3 -d -1 -p cbr -e 512 -c 2 -a 0 -i 4 -k AGT 
- -t 15.000000000 -s 3 -d -1 -p cbr -e 512 -c 2 -a 0 -i 4 -k AGT
h -t 15.000000000 -s 3 -d -1 -p cbr -e 512 -c 2 -a 0 -i 4 -k AGT
+ -t 15.002023425 -s 1 -d -1 -p DSR -e 32 -c 2 -a 0 -i 3 -k RTR 
- -t 15.002023425 -s 1 -d -1 -p DSR -e 32 -c 2 -a 0 -i 3 -k RTR
h -t 15.002023425 -s 1 -d -1 -p DSR -e 32 -c 2 -a 0 -i 3 -k RTR
+ -t 15.008841559 -s 3 -d -1 -p DSR -e 32 -c 2 -a 0 -i 5 -k RTR 
- -t 15.008841559 -s 3 -d -1 -p DSR -e 32 -c 2 -a 0 -i 5 -k RTR
h -t 15.008841559 -s 3 -d -1 -p DSR -e 32 -c 2 -a 0 -i 5 -k RTR
+ -t 15.008890119 -s 0 -d -1 -p DSR -e 32 -c 2 -a 0 -i 1 -k RTR 
- -t 15.008890119 -s 0 -d -1 -p DSR -e 32 -c 2 -a 0 -i 1 -k RTR
h -t 15.008890119 -s 0 -d -1 -p DSR -e 32 -c 2 -a 0 -i 1 -k RTR
+ -t 15.041514746 -s 1 -d -1 -p DSR -e 32 -c 2 -a 0 -i 9 -k RTR 
- -t 15.041514746 -s 1 -d -1 -p DSR -e 32 -c 2 -a 0 -i 9 -k RTR
h -t 15.041514746 -s 1 -d -1 -p DSR -e 32 -c 2 -a 0 -i 9 -k RTR
+ -t 15.043879395 -s 0 -d -1 -p DSR -e 48 -c 2 -a 0 -i 9 -k RTR 
- -t 15.043879395 -s 0 -d -1 -p DSR -e 48 -c 2 -a 0 -i 9 -k RTR
h -t 15.043879395 -s 0 -d -1 -p DSR -e 48 -c 2 -a 0 -i 9 -k RTR
+ -t 15.044664461 -s 12 -d -1 -p DSR -e 48 -c 2 -a 0 -i 9 -k RTR 
- -t 15.044664461 -s 12 -d -1 -p DSR -e 48 -c 2 -a 0 -i 9 -k RTR
h -t 15.044664461 -s 12 -d -1 -p DSR -e 48 -c 2 -a 0 -i 9 -k RTR
+ -t 15.045226427 -s 2 -d -1 -p DSR -e 48 -c 2 -a 0 -i 9 -k RTR 
- -t 15.045226427 -s 2 -d -1 -p DSR -e 48 -c 2 -a 0 -i 9 -k RTR
h -t 15.045226427 -s 2 -d -1 -p DSR -e 48 -c 2 -a 0 -i 9 -k RTR
+ -t 15.045928538 -s 8 -d -1 -p DSR -e 48 -c 2 -a 0 -i 9 -k RTR 
- -t 15.045928538 -s 8 -d -1 -p DSR -e 48 -c 2 -a 0 -i 9 -k RTR
h -t 15.045928538 -s 8 -d -1 -p DSR -e 48 -c 2 -a 0 -i 9 -k RTR
+ -t 15.046251583 -s 10 -d -1 -p DSR -e 48 -c 2 -a 0 -i 9 -k RTR 
- -t 15.046251583 -s 10 -d -1 -p DSR -e 48 -c 2 -a 0 -i 9 -k RTR
h -t 15.046251583 -s 10 -d -1 -p DSR -e 48 -c 2 -a 0 -i 9 -k RTR
+ -t 15.046374101 -s 11 -d -1 -p DSR -e 48 -c 2 -a 0 -i 9 -k RTR 
- -t 15.046374101 -s 11 -d -1 -p DSR -e 48 -c 2 -a 0 -i 9 -k RTR
h -t 15.046374101 -s 11 -d -1 -p DSR -e 48 -c 2 -a 0 -i 9 -k RTR
+ -t 15.046609444 -s 7 -d -1 -p DSR -e 48 -c 2 -a 0 -i 9 -k RTR 
- -t 15.046609444 -s 7 -d -1 -p DSR -e 48 -c 2 -a 0 -i 9 -k RTR
h -t 15.046609444 -s 7 -d -1 -p DSR -e 48 -c 2 -a 0 -i 9 -k RTR
+ -t 15.047025324 -s 5 -d -1 -p DSR -e 48 -c 2 -a 0 -i 9 -k RTR 
- -t 15.047025324 -s 5 -d -1 -p DSR -e 48 -c 2 -a 0 -i 9 -k RTR
h -t 15.047025324 -s 5 -d -1 -p DSR -e 48 -c 2 -a 0 -i 9 -k RTR
+ -t 15.047924506 -s 18 -d -1 -p DSR -e 68 -c 2 -a 0 -i 9 -k RTR 
- -t 15.047924506 -s 18 -d -1 -p DSR -e 68 -c 2 -a 0 -i 9 -k RTR
h -t 15.047924506 -s 18 -d -1 -p DSR -e 68 -c 2 -a 0 -i 9 -k RTR
+ -t 15.048215559 -s 13 -d -1 -p DSR -e 68 -c 2 -a 0 -i 9 -k RTR 
- -t 15.048215559 -s 13 -d -1 -p DSR -e 68 -c 2 -a 0 -i 9 -k RTR
h -t 15.048215559 -s 13 -d -1 -p DSR -e 68 -c 2 -a 0 -i 9 -k RTR
+ -t 15.048758748 -s 22 -d -1 -p DSR -e 68 -c 2 -a 0 -i 9 -k RTR 
- -t 15.048758748 -s 22 -d -1 -p DSR -e 68 -c 2 -a 0 -i 9 -k RTR
h -t 15.048758748 -s 22 -d -1 -p DSR -e 68 -c 2 -a 0 -i 9 -k RTR
+ -t 15.049614948 -s 17 -d -1 -p DSR -e 68 -c 2 -a 0 -i 9 -k RTR 
- -t 15.049614948 -s 17 -d -1 -p DSR -e 68 -c 2 -a 0 -i 9 -k RTR
h -t 15.049614948 -s 17 -d -1 -p DSR -e 68 -c 2 -a 0 -i 9 -k RTR
+ -t 15.050690480 -s 23 -d 18 -p DSR -e 60 -c 2 -a 0 -i 11 -k RTR 
- -t 15.050690480 -s 23 -d 18 -p DSR -e 60 -c 2 -a 0 -i 11 -k RTR
h -t 15.050690480 -s 23 -d 18 -p DSR -e 60 -c 2 -a 0 -i 11 -k RTR
+ -t 15.051290981 -s 23 -d 12 -p DSR -e 52 -c 2 -a 0 -i 10 -k RTR 
- -t 15.051290981 -s 23 -d 12 -p DSR -e 52 -c 2 -a 0 -i 10 -k RTR
h -t 15.051290981 -s 23 -d 12 -p DSR -e 52 -c 2 -a 0 -i 10 -k RTR
+ -t 15.051311337 -s 14 -d -1 -p DSR -e 68 -c 2 -a 0 -i 9 -k RTR 
- -t 15.051311337 -s 14 -d -1 -p DSR -e 68 -c 2 -a 0 -i 9 -k RTR
h -t 15.051311337 -s 14 -d -1 -p DSR -e 68 -c 2 -a 0 -i 9 -k RTR
+ -t 15.051383738 -s 3 -d -1 -p DSR -e 48 -c 2 -a 0 -i 9 -k RTR 
- -t 15.051383738 -s 3 -d -1 -p DSR -e 48 -c 2 -a 0 -i 9 -k RTR
h -t 15.051383738 -s 3 -d -1 -p DSR -e 48 -c 2 -a 0 -i 9 -k RTR
+ -t 15.052181453 -s 6 -d -1 -p DSR -e 48 -c 2 -a 0 -i 9 -k RTR 
- -t 15.052181453 -s 6 -d -1 -p DSR -e 48 -c 2 -a 0 -i 9 -k RTR
h -t 15.052181453 -s 6 -d -1 -p DSR -e 48 -c 2 -a 0 -i 9 -k RTR
+ -t 15.052459612 -s 18 -d 12 -p DSR -e 60 -c 2 -a 0 -i 11 -k RTR 
- -t 15.052459612 -s 18 -d 12 -p DSR -e 60 -c 2 -a 0 -i 11 -k RTR
h -t 15.052459612 -s 18 -d 12 -p DSR -e 60 -c 2 -a 0 -i 11 -k RTR
+ -t 15.052582629 -s 19 -d -1 -p DSR -e 68 -c 2 -a 0 -i 9 -k RTR 
- -t 15.052582629 -s 19 -d -1 -p DSR -e 68 -c 2 -a 0 -i 9 -k RTR
h -t 15.052582629 -s 19 -d -1 -p DSR -e 68 -c 2 -a 0 -i 9 -k RTR
+ -t 15.052589499 -s 4 -d -1 -p DSR -e 68 -c 2 -a 0 -i 9 -k RTR 
- -t 15.052589499 -s 4 -d -1 -p DSR -e 68 -c 2 -a 0 -i 9 -k RTR
h -t 15.052589499 -s 4 -d -1 -p DSR -e 68 -c 2 -a 0 -i 9 -k RTR
+ -t 15.053262670 -s 20 -d -1 -p DSR -e 92 -c 2 -a 0 -i 9 -k RTR 
- -t 15.053262670 -s 20 -d -1 -p DSR -e 92 -c 2 -a 0 -i 9 -k RTR
h -t 15.053262670 -s 20 -d -1 -p DSR -e 92 -c 2 -a 0 -i 9 -k RTR
+ -t 15.053265707 -s 0 -d -1 -p DSR -e 32 -c 2 -a 0 -i 13 -k RTR 
- -t 15.053265707 -s 0 -d -1 -p DSR -e 32 -c 2 -a 0 -i 13 -k RTR
h -t 15.053265707 -s 0 -d -1 -p DSR -e 32 -c 2 -a 0 -i 13 -k RTR
+ -t 15.053649359 -s 15 -d -1 -p DSR -e 68 -c 2 -a 0 -i 9 -k RTR 
- -t 15.053649359 -s 15 -d -1 -p DSR -e 68 -c 2 -a 0 -i 9 -k RTR
h -t 15.053649359 -s 15 -d -1 -p DSR -e 68 -c 2 -a 0 -i 9 -k RTR
+ -t 15.053706924 -s 9 -d -1 -p DSR -e 68 -c 2 -a 0 -i 9 -k RTR 
- -t 15.053706924 -s 9 -d -1 -p DSR -e 68 -c 2 -a 0 -i 9 -k RTR
h -t 15.053706924 -s 9 -d -1 -p DSR -e 68 -c 2 -a 0 -i 9 -k RTR
+ -t 15.055847969 -s 12 -d 1 -p DSR -e 60 -c 2 -a 0 -i 11 -k RTR 
- -t 15.055847969 -s 12 -d 1 -p DSR -e 60 -c 2 -a 0 -i 11 -k RTR
h -t 15.055847969 -s 12 -d 1 -p DSR -e 60 -c 2 -a 0 -i 11 -k RTR
+ -t 15.057138525 -s 21 -d -1 -p DSR -e 68 -c 2 -a 0 -i 9 -k RTR 
- -t 15.057138525 -s 21 -d -1 -p DSR -e 68 -c 2 -a 0 -i 9 -k RTR
h -t 15.057138525 -s 21 -d -1 -p DSR -e 68 -c 2 -a 0 -i 9 -k RTR
+ -t 15.057163344 -s 16 -d -1 -p DSR -e 68 -c 2 -a 0 -i 9 -k RTR 
- -t 15.057163344 -s 16 -d -1 -p DSR -e 68 -c 2 -a 0 -i 9 -k RTR
h -t 15.057163344 -s 16 -d -1 -p DSR -e 68 -c 2 -a 0 -i 9 -k RTR
+ -t 15.058486195 -s 24 -d -1 -p DSR -e 92 -c 2 -a 0 -i 9 -k RTR 
- -t 15.058486195 -s 24 -d -1 -p DSR -e 92 -c 2 -a 0 -i 9 -k RTR
h -t 15.058486195 -s 24 -d -1 -p DSR -e 92 -c 2 -a 0 -i 9 -k RTR
+ -t 15.058813205 -s 12 -d 1 -p DSR -e 52 -c 2 -a 0 -i 10 -k RTR 
- -t 15.058813205 -s 12 -d 1 -p DSR -e 52 -c 2 -a 0 -i 10 -k RTR
h -t 15.058813205 -s 12 -d 1 -p DSR -e 52 -c 2 -a 0 -i 10 -k RTR
+ -t 15.059968557 -s 23 -d 17 -p DSR -e 60 -c 2 -a 0 -i 12 -k RTR 
- -t 15.059968557 -s 23 -d 17 -p DSR -e 60 -c 2 -a 0 -i 12 -k RTR
h -t 15.059968557 -s 23 -d 17 -p DSR -e 60 -c 2 -a 0 -i 12 -k RTR
+ -t 15.061987606 -s 3 -d -1 -p DSR -e 32 -c 2 -a 0 -i 14 -k RTR 
- -t 15.061987606 -s 3 -d -1 -p DSR -e 32 -c 2 -a 0 -i 14 -k RTR
h -t 15.061987606 -s 3 -d -1 -p DSR -e 32 -c 2 -a 0 -i 14 -k RTR
+ -t 15.062116564 -s 1 -d 12 -p cbr -e 556 -c 2 -a 0 -i 2 -k RTR 
- -t 15.062116564 -s 1 -d 12 -p cbr -e 556 -c 2 -a 0 -i 2 -k RTR
h -t 15.062116564 -s 1 -d 12 -p cbr -e 556 -c 2 -a 0 -i 2 -k RTR
+ -t 15.062475629 -s 23 -d 13 -p DSR -e 60 -c 2 -a 0 -i 15 -k RTR 
- -t 15.062475629 -s 23 -d 13 -p DSR -e 60 -c 2 -a 0 -i 15 -k RTR
h -t 15.062475629 -s 23 -d 13 -p DSR -e 60 -c 2 -a 0 -i 15 -k RTR
+ -t 15.065212029 -s 23 -d 21 -p DSR -e 60 -c 2 -a 0 -i 16 -k RTR 
- -t 15.065212029 -s 23 -d 21 -p DSR -e 60 -c 2 -a 0 -i 16 -k RTR
h -t 15.065212029 -s 23 -d 21 -p DSR -e 60 -c 2 -a 0 -i 16 -k RTR
+ -t 15.070870272 -s 1 -d 0 -p DSR -e 56 -c 2 -a 0 -i 18 -k RTR 
- -t 15.070870272 -s 1 -d 0 -p DSR -e 56 -c 2 -a 0 -i 18 -k RTR
h -t 15.070870272 -s 1 -d 0 -p DSR -e 56 -c 2 -a 0 -i 18 -k RTR
+ -t 15.072624822 -s 23 -d 24 -p DSR -e 68 -c 2 -a 0 -i 19 -k RTR 
- -t 15.072624822 -s 23 -d 24 -p DSR -e 68 -c 2 -a 0 -i 19 -k RTR
h -t 15.072624822 -s 23 -d 24 -p DSR -e 68 -c 2 -a 0 -i 19 -k RTR
+ -t 15.072943764 -s 11 -d -1 -p DSR -e 48 -c 2 -a 0 -i 13 -k RTR 
- -t 15.072943764 -s 11 -d -1 -p DSR -e 48 -c 2 -a 0 -i 13 -k RTR
h -t 15.072943764 -s 11 -d -1 -p DSR -e 48 -c 2 -a 0 -i 13 -k RTR
+ -t 15.074746960 -s 23 -d 16 -p DSR -e 60 -c 2 -a 0 -i 17 -k RTR 
- -t 15.074746960 -s 23 -d 16 -p DSR -e 60 -c 2 -a 0 -i 17 -k RTR
h -t 15.074746960 -s 23 -d 16 -p DSR -e 60 -c 2 -a 0 -i 17 -k RTR
+ -t 15.074763155 -s 2 -d -1 -p DSR -e 48 -c 2 -a 0 -i 13 -k RTR 
- -t 15.074763155 -s 2 -d -1 -p DSR -e 48 -c 2 -a 0 -i 13 -k RTR
h -t 15.074763155 -s 2 -d -1 -p DSR -e 48 -c 2 -a 0 -i 13 -k RTR
+ -t 15.076283622 -s 23 -d 14 -p DSR -e 60 -c 2 -a 0 -i 21 -k RTR 
- -t 15.076283622 -s 23 -d 14 -p DSR -e 60 -c 2 -a 0 -i 21 -k RTR
h -t 15.076283622 -s 23 -d 14 -p DSR -e 60 -c 2 -a 0 -i 21 -k RTR
+ -t 15.076318281 -s 6 -d -1 -p DSR -e 48 -c 2 -a 0 -i 13 -k RTR 
- -t 15.076318281 -s 6 -d -1 -p DSR -e 48 -c 2 -a 0 -i 13 -k RTR
h -t 15.076318281 -s 6 -d -1 -p DSR -e 48 -c 2 -a 0 -i 13 -k RTR
+ -t 15.077450352 -s 5 -d -1 -p DSR -e 48 -c 2 -a 0 -i 13 -k RTR 
- -t 15.077450352 -s 5 -d -1 -p DSR -e 48 -c 2 -a 0 -i 13 -k RTR
h -t 15.077450352 -s 5 -d -1 -p DSR -e 48 -c 2 -a 0 -i 13 -k RTR
+ -t 15.078112313 -s 12 -d 6 -p DSR -e 60 -c 2 -a 0 -i 22 -k RTR 
- -t 15.078112313 -s 12 -d 6 -p DSR -e 60 -c 2 -a 0 -i 22 -k RTR
h -t 15.078112313 -s 12 -d 6 -p DSR -e 60 -c 2 -a 0 -i 22 -k RTR
+ -t 15.078112508 -s 16 -d 6 -p DSR -e 56 -c 2 -a 0 -i 23 -k RTR 
- -t 15.078112508 -s 16 -d 6 -p DSR -e 56 -c 2 -a 0 -i 23 -k RTR
h -t 15.078112508 -s 16 -d 6 -p DSR -e 56 -c 2 -a 0 -i 23 -k RTR
+ -t 15.078112587 -s 17 -d 6 -p DSR -e 56 -c 2 -a 0 -i 24 -k RTR 
- -t 15.078112587 -s 17 -d 6 -p DSR -e 56 -c 2 -a 0 -i 24 -k RTR
h -t 15.078112587 -s 17 -d 6 -p DSR -e 56 -c 2 -a 0 -i 24 -k RTR
+ -t 15.078112587 -s 13 -d 6 -p DSR -e 56 -c 2 -a 0 -i 25 -k RTR 
- -t 15.078112587 -s 13 -d 6 -p DSR -e 56 -c 2 -a 0 -i 25 -k RTR
h -t 15.078112587 -s 13 -d 6 -p DSR -e 56 -c 2 -a 0 -i 25 -k RTR
+ -t 15.078678198 -s 10 -d -1 -p DSR -e 48 -c 2 -a 0 -i 13 -k RTR 
- -t 15.078678198 -s 10 -d -1 -p DSR -e 48 -c 2 -a 0 -i 13 -k RTR
h -t 15.078678198 -s 10 -d -1 -p DSR -e 48 -c 2 -a 0 -i 13 -k RTR
+ -t 15.079755727 -s 6 -d 0 -p DSR -e 60 -c 2 -a 0 -i 22 -k RTR 
- -t 15.079755727 -s 6 -d 0 -p DSR -e 60 -c 2 -a 0 -i 22 -k RTR
h -t 15.079755727 -s 6 -d 0 -p DSR -e 60 -c 2 -a 0 -i 22 -k RTR
+ -t 15.080694234 -s 7 -d -1 -p DSR -e 48 -c 2 -a 0 -i 13 -k RTR 
- -t 15.080694234 -s 7 -d -1 -p DSR -e 48 -c 2 -a 0 -i 13 -k RTR
h -t 15.080694234 -s 7 -d -1 -p DSR -e 48 -c 2 -a 0 -i 13 -k RTR
+ -t 15.081258179 -s 23 -d 19 -p DSR -e 60 -c 2 -a 0 -i 20 -k RTR 
- -t 15.081258179 -s 23 -d 19 -p DSR -e 60 -c 2 -a 0 -i 20 -k RTR
h -t 15.081258179 -s 23 -d 19 -p DSR -e 60 -c 2 -a 0 -i 20 -k RTR
+ -t 15.081682708 -s 6 -d 0 -p DSR -e 56 -c 2 -a 0 -i 25 -k RTR 
- -t 15.081682708 -s 6 -d 0 -p DSR -e 56 -c 2 -a 0 -i 25 -k RTR
h -t 15.081682708 -s 6 -d 0 -p DSR -e 56 -c 2 -a 0 -i 25 -k RTR
+ -t 15.084997623 -s 8 -d -1 -p DSR -e 68 -c 2 -a 0 -i 13 -k RTR 
- -t 15.084997623 -s 8 -d -1 -p DSR -e 68 -c 2 -a 0 -i 13 -k RTR
h -t 15.084997623 -s 8 -d -1 -p DSR -e 68 -c 2 -a 0 -i 13 -k RTR
+ -t 15.085353613 -s 0 -d 6 -p cbr -e 560 -c 2 -a 0 -i 0 -k RTR 
- -t 15.085353613 -s 0 -d 6 -p cbr -e 560 -c 2 -a 0 -i 0 -k RTR
h -t 15.085353613 -s 0 -d 6 -p cbr -e 560 -c 2 -a 0 -i 0 -k RTR
+ -t 15.085723840 -s 1 -d -1 -p DSR -e 48 -c 2 -a 0 -i 14 -k RTR 
- -t 15.085723840 -s 1 -d -1 -p DSR -e 48 -c 2 -a 0 -i 14 -k RTR
h -t 15.085723840 -s 1 -d -1 -p DSR -e 48 -c 2 -a 0 -i 14 -k RTR
+ -t 15.086122077 -s 15 -d -1 -p DSR -e 68 -c 2 -a 0 -i 13 -k RTR 
- -t 15.086122077 -s 15 -d -1 -p DSR -e 68 -c 2 -a 0 -i 13 -k RTR
h -t 15.086122077 -s 15 -d -1 -p DSR -e 68 -c 2 -a 0 -i 13 -k RTR
+ -t 15.086150524 -s 3 -d -1 -p DSR -e 68 -c 2 -a 0 -i 13 -k RTR 
- -t 15.086150524 -s 3 -d -1 -p DSR -e 68 -c 2 -a 0 -i 13 -k RTR
h -t 15.086150524 -s 3 -d -1 -p DSR -e 68 -c 2 -a 0 -i 13 -k RTR
+ -t 15.086258916 -s 4 -d -1 -p DSR -e 48 -c 2 -a 0 -i 14 -k RTR 
- -t 15.086258916 -s 4 -d -1 -p DSR -e 48 -c 2 -a 0 -i 14 -k RTR
h -t 15.086258916 -s 4 -d -1 -p DSR -e 48 -c 2 -a 0 -i 14 -k RTR
+ -t 15.087980821 -s 14 -d -1 -p DSR -e 48 -c 2 -a 0 -i 14 -k RTR 
- -t 15.087980821 -s 14 -d -1 -p DSR -e 48 -c 2 -a 0 -i 14 -k RTR
h -t 15.087980821 -s 14 -d -1 -p DSR -e 48 -c 2 -a 0 -i 14 -k RTR
+ -t 15.088190471 -s 6 -d -1 -p DSR -e 48 -c 2 -a 0 -i 14 -k RTR 
- -t 15.088190471 -s 6 -d -1 -p DSR -e 48 -c 2 -a 0 -i 14 -k RTR
h -t 15.088190471 -s 6 -d -1 -p DSR -e 48 -c 2 -a 0 -i 14 -k RTR
+ -t 15.088717403 -s 13 -d -1 -p DSR -e 48 -c 2 -a 0 -i 14 -k RTR 
- -t 15.088717403 -s 13 -d -1 -p DSR -e 48 -c 2 -a 0 -i 14 -k RTR
h -t 15.088717403 -s 13 -d -1 -p DSR -e 48 -c 2 -a 0 -i 14 -k RTR
+ -t 15.089675983 -s 9 -d -1 -p DSR -e 48 -c 2 -a 0 -i 14 -k RTR 
- -t 15.089675983 -s 9 -d -1 -p DSR -e 48 -c 2 -a 0 -i 14 -k RTR
h -t 15.089675983 -s 9 -d -1 -p DSR -e 48 -c 2 -a 0 -i 14 -k RTR
+ -t 15.090242755 -s 7 -d -1 -p DSR -e 48 -c 2 -a 0 -i 14 -k RTR 
- -t 15.090242755 -s 7 -d -1 -p DSR -e 48 -c 2 -a 0 -i 14 -k RTR
h -t 15.090242755 -s 7 -d -1 -p DSR -e 48 -c 2 -a 0 -i 14 -k RTR
+ -t 15.090621822 -s 12 -d -1 -p DSR -e 48 -c 2 -a 0 -i 14 -k RTR 
- -t 15.090621822 -s 12 -d -1 -p DSR -e 48 -c 2 -a 0 -i 14 -k RTR
h -t 15.090621822 -s 12 -d -1 -p DSR -e 48 -c 2 -a 0 -i 14 -k RTR
+ -t 15.092553009 -s 2 -d -1 -p DSR -e 48 -c 2 -a 0 -i 14 -k RTR 
- -t 15.092553009 -s 2 -d -1 -p DSR -e 48 -c 2 -a 0 -i 14 -k RTR
h -t 15.092553009 -s 2 -d -1 -p DSR -e 48 -c 2 -a 0 -i 14 -k RTR
+ -t 15.092699379 -s 8 -d -1 -p DSR -e 48 -c 2 -a 0 -i 14 -k RTR 
- -t 15.092699379 -s 8 -d -1 -p DSR -e 48 -c 2 -a 0 -i 14 -k RTR
h -t 15.092699379 -s 8 -d -1 -p DSR -e 48 -c 2 -a 0 -i 14 -k RTR
+ -t 15.093356913 -s 6 -d 12 -p cbr -e 560 -c 2 -a 0 -i 0 -k RTR 
- -t 15.093356913 -s 6 -d 12 -p cbr -e 560 -c 2 -a 0 -i 0 -k RTR
h -t 15.093356913 -s 6 -d 12 -p cbr -e 560 -c 2 -a 0 -i 0 -k RTR
+ -t 15.094752187 -s 14 -d 3 -p DSR -e 64 -c 2 -a 0 -i 27 -k RTR 
- -t 15.094752187 -s 14 -d 3 -p DSR -e 64 -c 2 -a 0 -i 27 -k RTR
h -t 15.094752187 -s 14 -d 3 -p DSR -e 64 -c 2 -a 0 -i 27 -k RTR
+ -t 15.095863726 -s 9 -d -1 -p DSR -e 92 -c 2 -a 0 -i 13 -k RTR 
- -t 15.095863726 -s 9 -d -1 -p DSR -e 92 -c 2 -a 0 -i 13 -k RTR
h -t 15.095863726 -s 9 -d -1 -p DSR -e 92 -c 2 -a 0 -i 13 -k RTR
+ -t 15.096238784 -s 4 -d -1 -p DSR -e 92 -c 2 -a 0 -i 13 -k RTR 
- -t 15.096238784 -s 4 -d -1 -p DSR -e 92 -c 2 -a 0 -i 13 -k RTR
h -t 15.096238784 -s 4 -d -1 -p DSR -e 92 -c 2 -a 0 -i 13 -k RTR
+ -t 15.096716281 -s 0 -d -1 -p DSR -e 68 -c 2 -a 0 -i 14 -k RTR 
- -t 15.096716281 -s 0 -d -1 -p DSR -e 68 -c 2 -a 0 -i 14 -k RTR
h -t 15.096716281 -s 0 -d -1 -p DSR -e 68 -c 2 -a 0 -i 14 -k RTR
+ -t 15.097218447 -s 11 -d -1 -p DSR -e 68 -c 2 -a 0 -i 14 -k RTR 
- -t 15.097218447 -s 11 -d -1 -p DSR -e 68 -c 2 -a 0 -i 14 -k RTR
h -t 15.097218447 -s 11 -d -1 -p DSR -e 68 -c 2 -a 0 -i 14 -k RTR
+ -t 15.097755444 -s 10 -d -1 -p DSR -e 68 -c 2 -a 0 -i 14 -k RTR 
- -t 15.097755444 -s 10 -d -1 -p DSR -e 68 -c 2 -a 0 -i 14 -k RTR
h -t 15.097755444 -s 10 -d -1 -p DSR -e 68 -c 2 -a 0 -i 14 -k RTR
+ -t 15.099089218 -s 16 -d -1 -p DSR -e 68 -c 2 -a 0 -i 14 -k RTR 
- -t 15.099089218 -s 16 -d -1 -p DSR -e 68 -c 2 -a 0 -i 14 -k RTR
h -t 15.099089218 -s 16 -d -1 -p DSR -e 68 -c 2 -a 0 -i 14 -k RTR
+ -t 15.101837777 -s 5 -d -1 -p DSR -e 68 -c 2 -a 0 -i 14 -k RTR 
- -t 15.101837777 -s 5 -d -1 -p DSR -e 68 -c 2 -a 0 -i 14 -k RTR
h -t 15.101837777 -s 5 -d -1 -p DSR -e 68 -c 2 -a 0 -i 14 -k RTR
+ -t 15.103118373 -s 17 -d -1 -p DSR -e 68 -c 2 -a 0 -i 14 -k RTR 
- -t 15.103118373 -s 17 -d -1 -p DSR -e 68 -c 2 -a 0 -i 14 -k RTR
h -t 15.103118373 -s 17 -d -1 -p DSR -e 68 -c 2 -a 0 -i 14 -k RTR
+ -t 15.104026502 -s 12 -d 18 -p cbr -e 556 -c 2 -a 0 -i 2 -k RTR 
- -t 15.104026502 -s 12 -d 18 -p cbr -e 556 -c 2 -a 0 -i 2 -k RTR
h -t 15.104026502 -s 12 -d 18 -p cbr -e 556 -c 2 -a 0 -i 2 -k RTR
+ -t 15.105231914 -s 21 -d 10 -p DSR -e 56 -c 2 -a 0 -i 28 -k RTR 
- -t 15.105231914 -s 21 -d 10 -p DSR -e 56 -c 2 -a 0 -i 28 -k RTR
h -t 15.105231914 -s 21 -d 10 -p DSR -e 56 -c 2 -a 0 -i 28 -k RTR
+ -t 15.105334503 -s 18 -d -1 -p DSR -e 68 -c 2 -a 0 -i 14 -k RTR 
- -t 15.105334503 -s 18 -d -1 -p DSR -e 68 -c 2 -a 0 -i 14 -k RTR
h -t 15.105334503 -s 18 -d -1 -p DSR -e 68 -c 2 -a 0 -i 14 -k RTR
+ -t 15.106142581 -s 23 -d 12 -p DSR -e 56 -c 2 -a 0 -i 30 -k RTR 
- -t 15.106142581 -s 23 -d 12 -p DSR -e 56 -c 2 -a 0 -i 30 -k RTR
h -t 15.106142581 -s 23 -d 12 -p DSR -e 56 -c 2 -a 0 -i 30 -k RTR
+ -t 15.107754307 -s 6 -d 0 -p DSR -e 56 -c 2 -a 0 -i 23 -k RTR 
- -t 15.107754307 -s 6 -d 0 -p DSR -e 56 -c 2 -a 0 -i 23 -k RTR
h -t 15.107754307 -s 6 -d 0 -p DSR -e 56 -c 2 -a 0 -i 23 -k RTR
+ -t 15.108999385 -s 22 -d 11 -p DSR -e 56 -c 2 -a 0 -i 31 -k RTR 
- -t 15.108999385 -s 22 -d 11 -p DSR -e 56 -c 2 -a 0 -i 31 -k RTR
h -t 15.108999385 -s 22 -d 11 -p DSR -e 56 -c 2 -a 0 -i 31 -k RTR
+ -t 15.108999385 -s 18 -d 11 -p DSR -e 56 -c 2 -a 0 -i 32 -k RTR 
- -t 15.108999385 -s 18 -d 11 -p DSR -e 56 -c 2 -a 0 -i 32 -k RTR
h -t 15.108999385 -s 18 -d 11 -p DSR -e 56 -c 2 -a 0 -i 32 -k RTR
+ -t 15.109846200 -s 20 -d -1 -p DSR -e 68 -c 2 -a 0 -i 13 -k RTR 
- -t 15.109846200 -s 20 -d -1 -p DSR -e 68 -c 2 -a 0 -i 13 -k RTR
h -t 15.109846200 -s 20 -d -1 -p DSR -e 68 -c 2 -a 0 -i 13 -k RTR
+ -t 15.110121562 -s 22 -d -1 -p DSR -e 68 -c 2 -a 0 -i 14 -k RTR 
- -t 15.110121562 -s 22 -d -1 -p DSR -e 68 -c 2 -a 0 -i 14 -k RTR
h -t 15.110121562 -s 22 -d -1 -p DSR -e 68 -c 2 -a 0 -i 14 -k RTR
+ -t 15.110683495 -s 21 -d 12 -p DSR -e 52 -c 2 -a 0 -i 29 -k RTR 
- -t 15.110683495 -s 21 -d 12 -p DSR -e 52 -c 2 -a 0 -i 29 -k RTR
h -t 15.110683495 -s 21 -d 12 -p DSR -e 52 -c 2 -a 0 -i 29 -k RTR
+ -t 15.112398450 -s 15 -d -1 -p DSR -e 68 -c 2 -a 0 -i 14 -k RTR 
- -t 15.112398450 -s 15 -d -1 -p DSR -e 68 -c 2 -a 0 -i 14 -k RTR
h -t 15.112398450 -s 15 -d -1 -p DSR -e 68 -c 2 -a 0 -i 14 -k RTR
+ -t 15.112507198 -s 19 -d -1 -p DSR -e 68 -c 2 -a 0 -i 14 -k RTR 
- -t 15.112507198 -s 19 -d -1 -p DSR -e 68 -c 2 -a 0 -i 14 -k RTR
h -t 15.112507198 -s 19 -d -1 -p DSR -e 68 -c 2 -a 0 -i 14 -k RTR
+ -t 15.114343550 -s 21 -d 18 -p DSR -e 60 -c 2 -a 0 -i 33 -k RTR 
- -t 15.114343550 -s 21 -d 18 -p DSR -e 60 -c 2 -a 0 -i 33 -k RTR
h -t 15.114343550 -s 21 -d 18 -p DSR -e 60 -c 2 -a 0 -i 33 -k RTR
+ -t 15.118700582 -s 0 -d -1 -p cbr -e 512 -c 2 -a 0 -i 34 -k AGT 
- -t 15.118700582 -s 0 -d -1 -p cbr -e 512 -c 2 -a 0 -i 34 -k AGT
h -t 15.118700582 -s 0 -d -1 -p cbr -e 512 -c 2 -a 0 -i 34 -k AGT
+ -t 15.118700582 -s 0 -d 6 -p cbr -e 556 -c 2 -a 0 -i 34 -k RTR 
- -t 15.118700582 -s 0 -d 6 -p cbr -e 556 -c 2 -a 0 -i 34 -k RTR
h -t 15.118700582 -s 0 -d 6 -p cbr -e 556 -c 2 -a 0 -i 34 -k RTR
+ -t 15.119162082 -s 24 -d -1 -p DSR -e 92 -c 2 -a 0 -i 14 -k RTR 
- -t 15.119162082 -s 24 -d -1 -p DSR -e 92 -c 2 -a 0 -i 14 -k RTR
h -t 15.119162082 -s 24 -d -1 -p DSR -e 92 -c 2 -a 0 -i 14 -k RTR
+ -t 15.119308087 -s 3 -d 6 -p DSR -e 64 -c 2 -a 0 -i 27 -k RTR 
- -t 15.119308087 -s 3 -d 6 -p DSR -e 64 -c 2 -a 0 -i 27 -k RTR
h -t 15.119308087 -s 3 -d 6 -p DSR -e 64 -c 2 -a 0 -i 27 -k RTR
+ -t 15.128371055 -s 23 -d 12 -p DSR -e 52 -c 2 -a 0 -i 36 -k RTR 
- -t 15.128371055 -s 23 -d 12 -p DSR -e 52 -c 2 -a 0 -i 36 -k RTR
h -t 15.128371055 -s 23 -d 12 -p DSR -e 52 -c 2 -a 0 -i 36 -k RTR
+ -t 15.128395781 -s 18 -d 23 -p cbr -e 556 -c 2 -a 0 -i 2 -k RTR 
- -t 15.128395781 -s 18 -d 23 -p cbr -e 556 -c 2 -a 0 -i 2 -k RTR
h -t 15.128395781 -s 18 -d 23 -p cbr -e 556 -c 2 -a 0 -i 2 -k RTR
+ -t 15.130073193 -s 19 -d 9 -p DSR -e 72 -c 2 -a 0 -i 37 -k RTR 
- -t 15.130073193 -s 19 -d 9 -p DSR -e 72 -c 2 -a 0 -i 37 -k RTR
h -t 15.130073193 -s 19 -d 9 -p DSR -e 72 -c 2 -a 0 -i 37 -k RTR
+ -t 15.131789234 -s 6 -d 0 -p DSR -e 64 -c 2 -a 0 -i 27 -k RTR 
- -t 15.131789234 -s 6 -d 0 -p DSR -e 64 -c 2 -a 0 -i 27 -k RTR
h -t 15.131789234 -s 6 -d 0 -p DSR -e 64 -c 2 -a 0 -i 27 -k RTR
+ -t 15.133282989 -s 1 -d -1 -p cbr -e 512 -c 2 -a 0 -i 38 -k AGT 
- -t 15.133282989 -s 1 -d -1 -p cbr -e 512 -c 2 -a 0 -i 38 -k AGT
h -t 15.133282989 -s 1 -d -1 -p cbr -e 512 -c 2 -a 0 -i 38 -k AGT
+ -t 15.133282989 -s 1 -d 12 -p cbr -e 552 -c 2 -a 0 -i 38 -k RTR 
- -t 15.133282989 -s 1 -d 12 -p cbr -e 552 -c 2 -a 0 -i 38 -k RTR
h -t 15.133282989 -s 1 -d 12 -p cbr -e 552 -c 2 -a 0 -i 38 -k RTR
+ -t 15.136712294 -s 11 -d 0 -p DSR -e 56 -c 2 -a 0 -i 31 -k RTR 
- -t 15.136712294 -s 11 -d 0 -p DSR -e 56 -c 2 -a 0 -i 31 -k RTR
h -t 15.136712294 -s 11 -d 0 -p DSR -e 56 -c 2 -a 0 -i 31 -k RTR
+ -t 15.138639197 -s 10 -d 0 -p DSR -e 56 -c 2 -a 0 -i 28 -k RTR 
- -t 15.138639197 -s 10 -d 0 -p DSR -e 56 -c 2 -a 0 -i 28 -k RTR
h -t 15.138639197 -s 10 -d 0 -p DSR -e 56 -c 2 -a 0 -i 28 -k RTR
+ -t 15.141456904 -s 20 -d -1 -p DSR -e 92 -c 2 -a 0 -i 14 -k RTR 
- -t 15.141456904 -s 20 -d -1 -p DSR -e 92 -c 2 -a 0 -i 14 -k RTR
h -t 15.141456904 -s 20 -d -1 -p DSR -e 92 -c 2 -a 0 -i 14 -k RTR
+ -t 15.141498177 -s 21 -d 11 -p DSR -e 60 -c 2 -a 0 -i 39 -k RTR 
- -t 15.141498177 -s 21 -d 11 -p DSR -e 60 -c 2 -a 0 -i 39 -k RTR
h -t 15.141498177 -s 21 -d 11 -p DSR -e 60 -c 2 -a 0 -i 39 -k RTR
+ -t 15.141942291 -s 3 -d -1 -p cbr -e 512 -c 2 -a 0 -i 40 -k AGT 
- -t 15.141942291 -s 3 -d -1 -p cbr -e 512 -c 2 -a 0 -i 40 -k AGT
h -t 15.141942291 -s 3 -d -1 -p cbr -e 512 -c 2 -a 0 -i 40 -k AGT
+ -t 15.149287003 -s 12 -d 23 -p cbr -e 552 -c 2 -a 0 -i 38 -k RTR 
- -t 15.149287003 -s 12 -d 23 -p cbr -e 552 -c 2 -a 0 -i 38 -k RTR
h -t 15.149287003 -s 12 -d 23 -p cbr -e 552 -c 2 -a 0 -i 38 -k RTR
r -t 15.155221239 -s 23 -d 23 -p cbr -e 512 -c 2 -a 0 -i 38 -k AGT
+ -t 15.157507280 -s 21 -d 16 -p DSR -e 60 -c 2 -a 0 -i 42 -k RTR 
- -t 15.157507280 -s 21 -d 16 -p DSR -e 60 -c 2 -a 0 -i 42 -k RTR
h -t 15.157507280 -s 21 -d 16 -p DSR -e 60 -c 2 -a 0 -i 42 -k RTR
+ -t 15.160823496 -s 18 -d 7 -p DSR -e 60 -c 2 -a 0 -i 33 -k RTR 
- -t 15.160823496 -s 18 -d 7 -p DSR -e 60 -c 2 -a 0 -i 33 -k RTR
h -t 15.160823496 -s 18 -d 7 -p DSR -e 60 -c 2 -a 0 -i 33 -k RTR
+ -t 15.164193498 -s 17 -d 12 -p DSR -e 60 -c 2 -a 0 -i 12 -k RTR 
- -t 15.164193498 -s 17 -d 12 -p DSR -e 60 -c 2 -a 0 -i 12 -k RTR
h -t 15.164193498 -s 17 -d 12 -p DSR -e 60 -c 2 -a 0 -i 12 -k RTR
+ -t 15.164203224 -s 21 -d 20 -p DSR -e 68 -c 2 -a 0 -i 43 -k RTR 
- -t 15.164203224 -s 21 -d 20 -p DSR -e 68 -c 2 -a 0 -i 43 -k RTR
h -t 15.164203224 -s 21 -d 20 -p DSR -e 68 -c 2 -a 0 -i 43 -k RTR
+ -t 15.166210970 -s 16 -d 7 -p DSR -e 60 -c 2 -a 0 -i 42 -k RTR 
- -t 15.166210970 -s 16 -d 7 -p DSR -e 60 -c 2 -a 0 -i 42 -k RTR
h -t 15.166210970 -s 16 -d 7 -p DSR -e 60 -c 2 -a 0 -i 42 -k RTR
+ -t 15.168212303 -s 20 -d 11 -p DSR -e 68 -c 2 -a 0 -i 43 -k RTR 
- -t 15.168212303 -s 20 -d 11 -p DSR -e 68 -c 2 -a 0 -i 43 -k RTR
h -t 15.168212303 -s 20 -d 11 -p DSR -e 68 -c 2 -a 0 -i 43 -k RTR
+ -t 15.171573873 -s 11 -d 0 -p DSR -e 56 -c 2 -a 0 -i 32 -k RTR 
- -t 15.171573873 -s 11 -d 0 -p DSR -e 56 -c 2 -a 0 -i 32 -k RTR
h -t 15.171573873 -s 11 -d 0 -p DSR -e 56 -c 2 -a 0 -i 32 -k RTR
+ -t 15.173572854 -s 7 -d 3 -p DSR -e 60 -c 2 -a 0 -i 33 -k RTR 
- -t 15.173572854 -s 7 -d 3 -p DSR -e 60 -c 2 -a 0 -i 33 -k RTR
h -t 15.173572854 -s 7 -d 3 -p DSR -e 60 -c 2 -a 0 -i 33 -k RTR
r -t 15.179498599 -s 23 -d 23 -p cbr -e 512 -c 2 -a 0 -i 2 -k AGT
+ -t 15.181465307 -s 6 -d 0 -p DSR -e 56 -c 2 -a 0 -i 24 -k RTR 
- -t 15.181465307 -s 6 -d 0 -p DSR -e 56 -c 2 -a 0 -i 24 -k RTR
h -t 15.181465307 -s 6 -d 0 -p DSR -e 56 -c 2 -a 0 -i 24 -k RTR
+ -t 15.183543052 -s 12 -d 1 -p DSR -e 60 -c 2 -a 0 -i 12 -k RTR 
- -t 15.183543052 -s 12 -d 1 -p DSR -e 60 -c 2 -a 0 -i 12 -k RTR
h -t 15.183543052 -s 12 -d 1 -p DSR -e 60 -c 2 -a 0 -i 12 -k RTR
+ -t 15.185521760 -s 7 -d 3 -p DSR -e 60 -c 2 -a 0 -i 42 -k RTR 
- -t 15.185521760 -s 7 -d 3 -p DSR -e 60 -c 2 -a 0 -i 42 -k RTR
h -t 15.185521760 -s 7 -d 3 -p DSR -e 60 -c 2 -a 0 -i 42 -k RTR
+ -t 15.188570507 -s 3 -d 7 -p cbr -e 556 -c 2 -a 0 -i 4 -k RTR 
- -t 15.188570507 -s 3 -d 7 -p cbr -e 556 -c 2 -a 0 -i 4 -k RTR
h -t 15.188570507 -s 3 -d 7 -p cbr -e 556 -c 2 -a 0 -i 4 -k RTR
+ -t 15.194730135 -s 21 -d 17 -p DSR -e 60 -c 2 -a 0 -i 46 -k RTR 
- -t 15.194730135 -s 21 -d 17 -p DSR -e 60 -c 2 -a 0 -i 46 -k RTR
h -t 15.194730135 -s 21 -d 17 -p DSR -e 60 -c 2 -a 0 -i 46 -k RTR
+ -t 15.196487236 -s 12 -d 18 -p cbr -e 560 -c 2 -a 0 -i 0 -k RTR 
- -t 15.196487236 -s 12 -d 18 -p cbr -e 560 -c 2 -a 0 -i 0 -k RTR
h -t 15.196487236 -s 12 -d 18 -p cbr -e 560 -c 2 -a 0 -i 0 -k RTR
+ -t 15.199992132 -s 1 -d -1 -p cbr -e 512 -c 2 -a 0 -i 47 -k AGT 
- -t 15.199992132 -s 1 -d -1 -p cbr -e 512 -c 2 -a 0 -i 47 -k AGT
h -t 15.199992132 -s 1 -d -1 -p cbr -e 512 -c 2 -a 0 -i 47 -k AGT
+ -t 15.199992132 -s 1 -d 12 -p cbr -e 552 -c 2 -a 0 -i 47 -k RTR 
- -t 15.199992132 -s 1 -d 12 -p cbr -e 552 -c 2 -a 0 -i 47 -k RTR
h -t 15.199992132 -s 1 -d 12 -p cbr -e 552 -c 2 -a 0 -i 47 -k RTR
+ -t 15.204379341 -s 11 -d 7 -p DSR -e 68 -c 2 -a 0 -i 43 -k RTR 
- -t 15.204379341 -s 11 -d 7 -p DSR -e 68 -c 2 -a 0 -i 43 -k RTR
h -t 15.204379341 -s 11 -d 7 -p DSR -e 68 -c 2 -a 0 -i 43 -k RTR
+ -t 15.206420755 -s 7 -d 3 -p DSR -e 68 -c 2 -a 0 -i 43 -k RTR 
- -t 15.206420755 -s 7 -d 3 -p DSR -e 68 -c 2 -a 0 -i 43 -k RTR
h -t 15.206420755 -s 7 -d 3 -p DSR -e 68 -c 2 -a 0 -i 43 -k RTR
+ -t 15.214271917 -s 6 -d 13 -p cbr -e 556 -c 2 -a 0 -i 34 -k RTR 
- -t 15.214271917 -s 6 -d 13 -p cbr -e 556 -c 2 -a 0 -i 34 -k RTR
h -t 15.214271917 -s 6 -d 13 -p cbr -e 556 -c 2 -a 0 -i 34 -k RTR
+ -t 15.218570507 -s 3 -d 7 -p cbr -e 556 -c 2 -a 0 -i 40 -k RTR 
- -t 15.218570507 -s 3 -d 7 -p cbr -e 556 -c 2 -a 0 -i 40 -k RTR
h -t 15.218570507 -s 3 -d 7 -p cbr -e 556 -c 2 -a 0 -i 40 -k RTR
+ -t 15.220379802 -s 18 -d 23 -p cbr -e 560 -c 2 -a 0 -i 0 -k RTR 
- -t 15.220379802 -s 18 -d 23 -p cbr -e 560 -c 2 -a 0 -i 0 -k RTR
h -t 15.220379802 -s 18 -d 23 -p cbr -e 560 -c 2 -a 0 -i 0 -k RTR
+ -t 15.222454372 -s 12 -d 1 -p DSR -e 52 -c 2 -a 0 -i 36 -k RTR 
- -t 15.222454372 -s 12 -d 1 -p DSR -e 52 -c 2 -a 0 -i 36 -k RTR
h -t 15.222454372 -s 12 -d 1 -p DSR -e 52 -c 2 -a 0 -i 36 -k RTR
+ -t 15.224413117 -s 11 -d 7 -p DSR -e 60 -c 2 -a 0 -i 39 -k RTR 
- -t 15.224413117 -s 11 -d 7 -p DSR -e 60 -c 2 -a 0 -i 39 -k RTR
h -t 15.224413117 -s 11 -d 7 -p DSR -e 60 -c 2 -a 0 -i 39 -k RTR
+ -t 15.228242478 -s 9 -d 3 -p DSR -e 72 -c 2 -a 0 -i 37 -k RTR 
- -t 15.228242478 -s 9 -d 3 -p DSR -e 72 -c 2 -a 0 -i 37 -k RTR
h -t 15.228242478 -s 9 -d 3 -p DSR -e 72 -c 2 -a 0 -i 37 -k RTR
r -t 15.234180224 -s 23 -d 23 -p cbr -e 512 -c 2 -a 0 -i 0 -k AGT
+ -t 15.236158305 -s 17 -d 7 -p DSR -e 60 -c 2 -a 0 -i 46 -k RTR 
- -t 15.236158305 -s 17 -d 7 -p DSR -e 60 -c 2 -a 0 -i 46 -k RTR
h -t 15.236158305 -s 17 -d 7 -p DSR -e 60 -c 2 -a 0 -i 46 -k RTR
+ -t 15.238096305 -s 7 -d 3 -p DSR -e 60 -c 2 -a 0 -i 46 -k RTR 
- -t 15.238096305 -s 7 -d 3 -p DSR -e 60 -c 2 -a 0 -i 46 -k RTR
h -t 15.238096305 -s 7 -d 3 -p DSR -e 60 -c 2 -a 0 -i 46 -k RTR
+ -t 15.240054190 -s 7 -d 3 -p DSR -e 60 -c 2 -a 0 -i 39 -k RTR 
- -t 15.240054190 -s 7 -d 3 -p DSR -e 60 -c 2 -a 0 -i 39 -k RTR
h -t 15.240054190 -s 7 -d 3 -p DSR -e 60 -c 2 -a 0 -i 39 -k RTR
+ -t 15.248808938 -s 0 -d -1 -p cbr -e 512 -c 2 -a 0 -i 48 -k AGT 
- -t 15.248808938 -s 0 -d -1 -p cbr -e 512 -c 2 -a 0 -i 48 -k AGT
h -t 15.248808938 -s 0 -d -1 -p cbr -e 512 -c 2 -a 0 -i 48 -k AGT
+ -t 15.248808938 -s 0 -d 6 -p cbr -e 556 -c 2 -a 0 -i 48 -k RTR 
- -t 15.248808938 -s 0 -d 6 -p cbr -e 556 -c 2 -a 0 -i 48 -k RTR
h -t 15.248808938 -s 0 -d 6 -p cbr -e 556 -c 2 -a 0 -i 48 -k RTR
+ -t 15.250240333 -s 12 -d 23 -p cbr -e 552 -c 2 -a 0 -i 47 -k RTR 
- -t 15.250240333 -s 12 -d 23 -p cbr -e 552 -c 2 -a 0 -i 47 -k RTR
h -t 15.250240333 -s 12 -d 23 -p cbr -e 552 -c 2 -a 0 -i 47 -k RTR
+ -t 15.255188254 -s 12 -d 3 -p DSR -e 52 -c 2 -a 0 -i 29 -k RTR 
- -t 15.255188254 -s 12 -d 3 -p DSR -e 52 -c 2 -a 0 -i 29 -k RTR
h -t 15.255188254 -s 12 -d 3 -p DSR -e 52 -c 2 -a 0 -i 29 -k RTR
+ -t 15.255326016 -s 3 -d -1 -p cbr -e 512 -c 2 -a 0 -i 49 -k AGT 
- -t 15.255326016 -s 3 -d -1 -p cbr -e 512 -c 2 -a 0 -i 49 -k AGT
h -t 15.255326016 -s 3 -d -1 -p cbr -e 512 -c 2 -a 0 -i 49 -k AGT
+ -t 15.255326016 -s 3 -d 7 -p cbr -e 556 -c 2 -a 0 -i 49 -k RTR 