n -t * -s 0  -x 100 -y 0 -Z 0 -z 30  -v circle -c black
n -t * -s 1  -x 300 -y 0 -Z 0 -z 30  -v circle -c black
n -t * -s 2  -x 500 -y 0 -Z 0 -z 30  -v circle -c black
n -t * -s 3  -x 100 -y 100 -Z 0 -z 30  -v circle -c black
n -t * -s 4  -x 300 -y 100 -Z 0 -z 30  -v circle -c black
n -t * -s 5  -x 500 -y 100 -Z 0 -z 30  -v circle -c black
n -t * -s 6  -x 100 -y 200 -Z 0 -z 30  -v circle -c black
n -t * -s 7  -x 300 -y 200 -Z 0 -z 30  -v circle -c black
n -t * -s 8  -x 500 -y 200 -Z 0 -z 30  -v circle -c black
n -t * -s 9  -x 100 -y 300 -Z 0 -z 30  -v circle -c black
n -t * -s 10  -x 300 -y 300 -Z 0 -z 30  -v circle -c black
n -t * -s 11  -x 500 -y 300 -Z 0 -z 30  -v circle -c black
n -t * -s 12  -x 100 -y 400 -Z 0 -z 30  -v circle -c black
n -t * -s 13  -x 300 -y 400 -Z 0 -z 30  -v circle -c black
n -t * -s 14  -x 500 -y 400 -Z 0 -z 30  -v circle -c black
n -t * -s 15  -x 100 -y 500 -Z 0 -z 30  -v circle -c black
n -t * -s 16  -x 300 -y 500 -Z 0 -z 30  -v circle -c black
n -t * -s 17  -x 500 -y 500 -Z 0 -z 30  -v circle -c black
n -t * -s 18  -x 400 -y 500 -Z 0 -z 30  -v circle -c black
n -t * -s 19  -x 200 -y 500 -Z 0 -z 30  -v circle -c black
n -t * -s 20  -x 400 -y 400 -Z 0 -z 30  -v circle -c black
n -t * -s 21  -x 200 -y 400 -Z 0 -z 30  -v circle -c black
n -t * -s 22  -x 400 -y 300 -Z 0 -z 30  -v circle -c black
n -t * -s 23  -x 200 -y 300 -Z 0 -z 30  -v circle -c black
n -t * -s 24  -x 400 -y 200 -Z 0 -z 30  -v circle -c black
V -t * -v 1.0a5 -a 0
W -t * -x 500 -y 500
A -t * -n 1 -p 0 -o 0xffffffff -c 31 -a 1
A -t * -h 1 -m 2147483647 -s 0
+ -t 15.000000000 -s 0 -d -1 -p cbr -e 512 -c 2 -a 0 -i 0 -k AGT 
- -t 15.000000000 -s 0 -d -1 -p cbr -e 512 -c 2 -a 0 -i 0 -k AGT
h -t 15.000000000 -s 0 -d -1 -p cbr -e 512 -c 2 -a 0 -i 0 -k AGT
+ -t 15.000000000 -s 1 -d -1 -p cbr -e 512 -c 2 -a 0 -i 2 -k AGT 
- -t 15.000000000 -s 1 -d -1 -p cbr -e 512 -c 2 -a 0 -i 2 -k AGT
h -t 15.000000000 -s 1 -d -1 -p cbr -e 512 -c 2 -a 0 -i 2 -k AGT
+ -t 15.000000000 -s 3 -d -1 -p cbr -e 512 -c 2 -a 0 -i 4 -k AGT 
- -t 15.000000000 -s 3 -d -1 -p cbr -e 512 -c 2 -a 0 -i 4 -k AGT
h -t 15.000000000 -s 3 -d -1 -p cbr -e 512 -c 2 -a 0 -i 4 -k AGT
+ -t 15.002023425 -s 1 -d -1 -p DSR -e 32 -c 2 -a 0 -i 3 -k RTR 
- -t 15.002023425 -s 1 -d -1 -p DSR -e 32 -c 2 -a 0 -i 3 -k RTR
h -t 15.002023425 -s 1 -d -1 -p DSR -e 32 -c 2 -a 0 -i 3 -k RTR
+ -t 15.008841559 -s 3 -d -1 -p DSR -e 32 -c 2 -a 0 -i 5 -k RTR 
- -t 15.008841559 -s 3 -d -1 -p DSR -e 32 -c 2 -a 0 -i 5 -k RTR
h -t 15.008841559 -s 3 -d -1 -p DSR -e 32 -c 2 -a 0 -i 5 -k RTR
+ -t 15.008890119 -s 0 -d -1 -p DSR -e 32 -c 2 -a 0 -i 1 -k RTR 
- -t 15.008890119 -s 0 -d -1 -p DSR -e 32 -c 2 -a 0 -i 1 -k RTR
h -t 15.008890119 -s 0 -d -1 -p DSR -e 32 -c 2 -a 0 -i 1 -k RTR
+ -t 15.041514746 -s 1 -d -1 -p DSR -e 32 -c 2 -a 0 -i 9 -k RTR 
- -t 15.041514746 -s 1 -d -1 -p DSR -e 32 -c 2 -a 0 -i 9 -k RTR
h -t 15.041514746 -s 1 -d -1 -p DSR -e 32 -c 2 -a 0 -i 9 -k RTR
+ -t 15.043879395 -s 4 -d -1 -p DSR -e 48 -c 2 -a 0 -i 9 -k RTR 
- -t 15.043879395 -s 4 -d -1 -p DSR -e 48 -c 2 -a 0 -i 9 -k RTR
h -t 15.043879395 -s 4 -d -1 -p DSR -e 48 -c 2 -a 0 -i 9 -k RTR
+ -t 15.045226761 -s 7 -d -1 -p DSR -e 48 -c 2 -a 0 -i 9 -k RTR 
- -t 15.045226761 -s 7 -d -1 -p DSR -e 48 -c 2 -a 0 -i 9 -k RTR
h -t 15.045226761 -s 7 -d -1 -p DSR -e 48 -c 2 -a 0 -i 9 -k RTR
+ -t 15.046374180 -s 24 -d -1 -p DSR -e 48 -c 2 -a 0 -i 9 -k RTR 
- -t 15.046374180 -s 24 -d -1 -p DSR -e 48 -c 2 -a 0 -i 9 -k RTR
h -t 15.046374180 -s 24 -d -1 -p DSR -e 48 -c 2 -a 0 -i 9 -k RTR
+ -t 15.046609718 -s 3 -d -1 -p DSR -e 48 -c 2 -a 0 -i 9 -k RTR 
- -t 15.046609718 -s 3 -d -1 -p DSR -e 48 -c 2 -a 0 -i 9 -k RTR
h -t 15.046609718 -s 3 -d -1 -p DSR -e 48 -c 2 -a 0 -i 9 -k RTR
+ -t 15.047025520 -s 2 -d -1 -p DSR -e 48 -c 2 -a 0 -i 9 -k RTR 
- -t 15.047025520 -s 2 -d -1 -p DSR -e 48 -c 2 -a 0 -i 9 -k RTR
h -t 15.047025520 -s 2 -d -1 -p DSR -e 48 -c 2 -a 0 -i 9 -k RTR
+ -t 15.048212258 -s 21 -d -1 -p DSR -e 68 -c 2 -a 0 -i 9 -k RTR 
- -t 15.048212258 -s 21 -d -1 -p DSR -e 68 -c 2 -a 0 -i 9 -k RTR
h -t 15.048212258 -s 21 -d -1 -p DSR -e 68 -c 2 -a 0 -i 9 -k RTR
+ -t 15.048213770 -s 23 -d 3 -p DSR -e 52 -c 2 -a 0 -i 12 -k RTR 
- -t 15.048213770 -s 23 -d 3 -p DSR -e 52 -c 2 -a 0 -i 12 -k RTR
h -t 15.048213770 -s 23 -d 3 -p DSR -e 52 -c 2 -a 0 -i 12 -k RTR
+ -t 15.048491324 -s 8 -d -1 -p DSR -e 68 -c 2 -a 0 -i 9 -k RTR 
- -t 15.048491324 -s 8 -d -1 -p DSR -e 68 -c 2 -a 0 -i 9 -k RTR
h -t 15.048491324 -s 8 -d -1 -p DSR -e 68 -c 2 -a 0 -i 9 -k RTR
+ -t 15.048642635 -s 11 -d -1 -p DSR -e 68 -c 2 -a 0 -i 9 -k RTR 
- -t 15.048642635 -s 11 -d -1 -p DSR -e 68 -c 2 -a 0 -i 9 -k RTR
h -t 15.048642635 -s 11 -d -1 -p DSR -e 68 -c 2 -a 0 -i 9 -k RTR
+ -t 15.050553545 -s 23 -d 24 -p DSR -e 52 -c 2 -a 0 -i 13 -k RTR 
- -t 15.050553545 -s 23 -d 24 -p DSR -e 52 -c 2 -a 0 -i 13 -k RTR
h -t 15.050553545 -s 23 -d 24 -p DSR -e 52 -c 2 -a 0 -i 13 -k RTR
+ -t 15.051032856 -s 6 -d -1 -p DSR -e 68 -c 2 -a 0 -i 9 -k RTR 
- -t 15.051032856 -s 6 -d -1 -p DSR -e 68 -c 2 -a 0 -i 9 -k RTR
h -t 15.051032856 -s 6 -d -1 -p DSR -e 68 -c 2 -a 0 -i 9 -k RTR
+ -t 15.051383817 -s 5 -d -1 -p DSR -e 48 -c 2 -a 0 -i 9 -k RTR 
- -t 15.051383817 -s 5 -d -1 -p DSR -e 48 -c 2 -a 0 -i 9 -k RTR
h -t 15.051383817 -s 5 -d -1 -p DSR -e 48 -c 2 -a 0 -i 9 -k RTR
+ -t 15.051902312 -s 10 -d -1 -p DSR -e 68 -c 2 -a 0 -i 9 -k RTR 
- -t 15.051902312 -s 10 -d -1 -p DSR -e 68 -c 2 -a 0 -i 9 -k RTR
h -t 15.051902312 -s 10 -d -1 -p DSR -e 68 -c 2 -a 0 -i 9 -k RTR
+ -t 15.052181787 -s 0 -d -1 -p DSR -e 48 -c 2 -a 0 -i 9 -k RTR 
- -t 15.052181787 -s 0 -d -1 -p DSR -e 48 -c 2 -a 0 -i 9 -k RTR
h -t 15.052181787 -s 0 -d -1 -p DSR -e 48 -c 2 -a 0 -i 9 -k RTR
+ -t 15.052586198 -s 13 -d -1 -p DSR -e 68 -c 2 -a 0 -i 9 -k RTR 
- -t 15.052586198 -s 13 -d -1 -p DSR -e 68 -c 2 -a 0 -i 9 -k RTR
h -t 15.052586198 -s 13 -d -1 -p DSR -e 68 -c 2 -a 0 -i 9 -k RTR
+ -t 15.052789434 -s 0 -d -1 -p DSR -e 32 -c 2 -a 0 -i 14 -k RTR 
- -t 15.052789434 -s 0 -d -1 -p DSR -e 32 -c 2 -a 0 -i 14 -k RTR
h -t 15.052789434 -s 0 -d -1 -p DSR -e 32 -c 2 -a 0 -i 14 -k RTR
+ -t 15.052888133 -s 23 -d 4 -p DSR -e 52 -c 2 -a 0 -i 10 -k RTR 
- -t 15.052888133 -s 23 -d 4 -p DSR -e 52 -c 2 -a 0 -i 10 -k RTR
h -t 15.052888133 -s 23 -d 4 -p DSR -e 52 -c 2 -a 0 -i 10 -k RTR
+ -t 15.053214651 -s 23 -d 7 -p DSR -e 52 -c 2 -a 0 -i 11 -k RTR 
- -t 15.053214651 -s 23 -d 7 -p DSR -e 52 -c 2 -a 0 -i 11 -k RTR
h -t 15.053214651 -s 23 -d 7 -p DSR -e 52 -c 2 -a 0 -i 11 -k RTR
+ -t 15.053304411 -s 14 -d -1 -p DSR -e 68 -c 2 -a 0 -i 9 -k RTR 
- -t 15.053304411 -s 14 -d -1 -p DSR -e 68 -c 2 -a 0 -i 9 -k RTR
h -t 15.053304411 -s 14 -d -1 -p DSR -e 68 -c 2 -a 0 -i 9 -k RTR
+ -t 15.053703623 -s 9 -d -1 -p DSR -e 68 -c 2 -a 0 -i 9 -k RTR 
- -t 15.053703623 -s 9 -d -1 -p DSR -e 68 -c 2 -a 0 -i 9 -k RTR
h -t 15.053703623 -s 9 -d -1 -p DSR -e 68 -c 2 -a 0 -i 9 -k RTR
+ -t 15.054615904 -s 22 -d -1 -p DSR -e 68 -c 2 -a 0 -i 9 -k RTR 
- -t 15.054615904 -s 22 -d -1 -p DSR -e 68 -c 2 -a 0 -i 9 -k RTR
h -t 15.054615904 -s 22 -d -1 -p DSR -e 68 -c 2 -a 0 -i 9 -k RTR
+ -t 15.054783034 -s 18 -d -1 -p DSR -e 92 -c 2 -a 0 -i 9 -k RTR 
- -t 15.054783034 -s 18 -d -1 -p DSR -e 92 -c 2 -a 0 -i 9 -k RTR
h -t 15.054783034 -s 18 -d -1 -p DSR -e 92 -c 2 -a 0 -i 9 -k RTR
+ -t 15.054948200 -s 3 -d -1 -p DSR -e 32 -c 2 -a 0 -i 16 -k RTR 
- -t 15.054948200 -s 3 -d -1 -p DSR -e 32 -c 2 -a 0 -i 16 -k RTR
h -t 15.054948200 -s 3 -d -1 -p DSR -e 32 -c 2 -a 0 -i 16 -k RTR
+ -t 15.055499339 -s 20 -d -1 -p DSR -e 68 -c 2 -a 0 -i 9 -k RTR 
- -t 15.055499339 -s 20 -d -1 -p DSR -e 68 -c 2 -a 0 -i 9 -k RTR
h -t 15.055499339 -s 20 -d -1 -p DSR -e 68 -c 2 -a 0 -i 9 -k RTR
+ -t 15.055811897 -s 23 -d 10 -p DSR -e 60 -c 2 -a 0 -i 15 -k RTR 
- -t 15.055811897 -s 23 -d 10 -p DSR -e 60 -c 2 -a 0 -i 15 -k RTR
h -t 15.055811897 -s 23 -d 10 -p DSR -e 60 -c 2 -a 0 -i 15 -k RTR
+ -t 15.060084084 -s 16 -d -1 -p DSR -e 92 -c 2 -a 0 -i 9 -k RTR 
- -t 15.060084084 -s 16 -d -1 -p DSR -e 92 -c 2 -a 0 -i 9 -k RTR
h -t 15.060084084 -s 16 -d -1 -p DSR -e 92 -c 2 -a 0 -i 9 -k RTR
+ -t 15.060476475 -s 23 -d 22 -p DSR -e 60 -c 2 -a 0 -i 17 -k RTR 
- -t 15.060476475 -s 23 -d 22 -p DSR -e 60 -c 2 -a 0 -i 17 -k RTR
h -t 15.060476475 -s 23 -d 22 -p DSR -e 60 -c 2 -a 0 -i 17 -k RTR
+ -t 15.061489117 -s 17 -d -1 -p DSR -e 92 -c 2 -a 0 -i 9 -k RTR 
- -t 15.061489117 -s 17 -d -1 -p DSR -e 92 -c 2 -a 0 -i 9 -k RTR
h -t 15.061489117 -s 17 -d -1 -p DSR -e 92 -c 2 -a 0 -i 9 -k RTR
+ -t 15.062162056 -s 23 -d 20 -p DSR -e 60 -c 2 -a 0 -i 18 -k RTR 
- -t 15.062162056 -s 23 -d 20 -p DSR -e 60 -c 2 -a 0 -i 18 -k RTR
h -t 15.062162056 -s 23 -d 20 -p DSR -e 60 -c 2 -a 0 -i 18 -k RTR
+ -t 15.062427372 -s 3 -d 1 -p DSR -e 52 -c 2 -a 0 -i 12 -k RTR 
- -t 15.062427372 -s 3 -d 1 -p DSR -e 52 -c 2 -a 0 -i 12 -k RTR
h -t 15.062427372 -s 3 -d 1 -p DSR -e 52 -c 2 -a 0 -i 12 -k RTR
+ -t 15.062674322 -s 12 -d -1 -p DSR -e 92 -c 2 -a 0 -i 9 -k RTR 
- -t 15.062674322 -s 12 -d -1 -p DSR -e 92 -c 2 -a 0 -i 9 -k RTR
h -t 15.062674322 -s 12 -d -1 -p DSR -e 92 -c 2 -a 0 -i 9 -k RTR
+ -t 15.063899582 -s 1 -d -1 -p DSR -e 48 -c 2 -a 0 -i 16 -k RTR 
- -t 15.063899582 -s 1 -d -1 -p DSR -e 48 -c 2 -a 0 -i 16 -k RTR
h -t 15.063899582 -s 1 -d -1 -p DSR -e 48 -c 2 -a 0 -i 16 -k RTR
+ -t 15.064081252 -s 19 -d -1 -p DSR -e 92 -c 2 -a 0 -i 9 -k RTR 
- -t 15.064081252 -s 19 -d -1 -p DSR -e 92 -c 2 -a 0 -i 9 -k RTR
h -t 15.064081252 -s 19 -d -1 -p DSR -e 92 -c 2 -a 0 -i 9 -k RTR
+ -t 15.064521883 -s 4 -d -1 -p DSR -e 48 -c 2 -a 0 -i 16 -k RTR 
- -t 15.064521883 -s 4 -d -1 -p DSR -e 48 -c 2 -a 0 -i 16 -k RTR
h -t 15.064521883 -s 4 -d -1 -p DSR -e 48 -c 2 -a 0 -i 16 -k RTR
+ -t 15.067633452 -s 20 -d 7 -p DSR -e 60 -c 2 -a 0 -i 18 -k RTR 
- -t 15.067633452 -s 20 -d 7 -p DSR -e 60 -c 2 -a 0 -i 18 -k RTR
h -t 15.067633452 -s 20 -d 7 -p DSR -e 60 -c 2 -a 0 -i 18 -k RTR
+ -t 15.067806785 -s 9 -d -1 -p DSR -e 48 -c 2 -a 0 -i 16 -k RTR 
- -t 15.067806785 -s 9 -d -1 -p DSR -e 48 -c 2 -a 0 -i 16 -k RTR
h -t 15.067806785 -s 9 -d -1 -p DSR -e 48 -c 2 -a 0 -i 16 -k RTR
+ -t 15.067961091 -s 23 -d 13 -p DSR -e 60 -c 2 -a 0 -i 19 -k RTR 
- -t 15.067961091 -s 23 -d 13 -p DSR -e 60 -c 2 -a 0 -i 19 -k RTR
h -t 15.067961091 -s 23 -d 13 -p DSR -e 60 -c 2 -a 0 -i 19 -k RTR
+ -t 15.068446609 -s 6 -d -1 -p DSR -e 48 -c 2 -a 0 -i 16 -k RTR 
- -t 15.068446609 -s 6 -d -1 -p DSR -e 48 -c 2 -a 0 -i 16 -k RTR
h -t 15.068446609 -s 6 -d -1 -p DSR -e 48 -c 2 -a 0 -i 16 -k RTR
+ -t 15.069382920 -s 15 -d -1 -p DSR -e 92 -c 2 -a 0 -i 9 -k RTR 
- -t 15.069382920 -s 15 -d -1 -p DSR -e 92 -c 2 -a 0 -i 9 -k RTR
h -t 15.069382920 -s 15 -d -1 -p DSR -e 92 -c 2 -a 0 -i 9 -k RTR
+ -t 15.069592197 -s 22 -d 4 -p DSR -e 60 -c 2 -a 0 -i 17 -k RTR 
- -t 15.069592197 -s 22 -d 4 -p DSR -e 60 -c 2 -a 0 -i 17 -k RTR
h -t 15.069592197 -s 22 -d 4 -p DSR -e 60 -c 2 -a 0 -i 17 -k RTR
+ -t 15.070797688 -s 23 -d 4 -p DSR -e 56 -c 2 -a 0 -i 21 -k RTR 
- -t 15.070797688 -s 23 -d 4 -p DSR -e 56 -c 2 -a 0 -i 21 -k RTR
h -t 15.070797688 -s 23 -d 4 -p DSR -e 56 -c 2 -a 0 -i 21 -k RTR
+ -t 15.071306826 -s 5 -d -1 -p DSR -e 68 -c 2 -a 0 -i 16 -k RTR 
- -t 15.071306826 -s 5 -d -1 -p DSR -e 68 -c 2 -a 0 -i 16 -k RTR
h -t 15.071306826 -s 5 -d -1 -p DSR -e 68 -c 2 -a 0 -i 16 -k RTR
+ -t 15.072424552 -s 23 -d 21 -p DSR -e 60 -c 2 -a 0 -i 20 -k RTR 
- -t 15.072424552 -s 23 -d 21 -p DSR -e 60 -c 2 -a 0 -i 20 -k RTR
h -t 15.072424552 -s 23 -d 21 -p DSR -e 60 -c 2 -a 0 -i 20 -k RTR
+ -t 15.072764430 -s 23 -d 6 -p DSR -e 60 -c 2 -a 0 -i 22 -k RTR 
- -t 15.072764430 -s 23 -d 6 -p DSR -e 60 -c 2 -a 0 -i 22 -k RTR
h -t 15.072764430 -s 23 -d 6 -p DSR -e 60 -c 2 -a 0 -i 22 -k RTR
+ -t 15.073172524 -s 0 -d -1 -p DSR -e 48 -c 2 -a 0 -i 16 -k RTR 
- -t 15.073172524 -s 0 -d -1 -p DSR -e 48 -c 2 -a 0 -i 16 -k RTR
h -t 15.073172524 -s 0 -d -1 -p DSR -e 48 -c 2 -a 0 -i 16 -k RTR
+ -t 15.073236178 -s 2 -d -1 -p DSR -e 68 -c 2 -a 0 -i 16 -k RTR 
- -t 15.073236178 -s 2 -d -1 -p DSR -e 68 -c 2 -a 0 -i 16 -k RTR
h -t 15.073236178 -s 2 -d -1 -p DSR -e 68 -c 2 -a 0 -i 16 -k RTR
+ -t 15.073776603 -s 22 -d -1 -p DSR -e 68 -c 2 -a 0 -i 16 -k RTR 
- -t 15.073776603 -s 22 -d -1 -p DSR -e 68 -c 2 -a 0 -i 16 -k RTR
h -t 15.073776603 -s 22 -d -1 -p DSR -e 68 -c 2 -a 0 -i 16 -k RTR
+ -t 15.078852319 -s 24 -d -1 -p DSR -e 68 -c 2 -a 0 -i 16 -k RTR 
- -t 15.078852319 -s 24 -d -1 -p DSR -e 68 -c 2 -a 0 -i 16 -k RTR
h -t 15.078852319 -s 24 -d -1 -p DSR -e 68 -c 2 -a 0 -i 16 -k RTR
+ -t 15.078909790 -s 8 -d -1 -p DSR -e 68 -c 2 -a 0 -i 16 -k RTR 
- -t 15.078909790 -s 8 -d -1 -p DSR -e 68 -c 2 -a 0 -i 16 -k RTR
h -t 15.078909790 -s 8 -d -1 -p DSR -e 68 -c 2 -a 0 -i 16 -k RTR
+ -t 15.079410426 -s 10 -d -1 -p DSR -e 68 -c 2 -a 0 -i 16 -k RTR 
- -t 15.079410426 -s 10 -d -1 -p DSR -e 68 -c 2 -a 0 -i 16 -k RTR
h -t 15.079410426 -s 10 -d -1 -p DSR -e 68 -c 2 -a 0 -i 16 -k RTR
+ -t 15.080290593 -s 13 -d 7 -p DSR -e 60 -c 2 -a 0 -i 19 -k RTR 
- -t 15.080290593 -s 13 -d 7 -p DSR -e 60 -c 2 -a 0 -i 19 -k RTR
h -t 15.080290593 -s 13 -d 7 -p DSR -e 60 -c 2 -a 0 -i 19 -k RTR
+ -t 15.080620826 -s 7 -d -1 -p DSR -e 68 -c 2 -a 0 -i 16 -k RTR 
- -t 15.080620826 -s 7 -d -1 -p DSR -e 68 -c 2 -a 0 -i 16 -k RTR
h -t 15.080620826 -s 7 -d -1 -p DSR -e 68 -c 2 -a 0 -i 16 -k RTR
+ -t 15.082268593 -s 7 -d 1 -p DSR -e 60 -c 2 -a 0 -i 19 -k RTR 
- -t 15.082268593 -s 7 -d 1 -p DSR -e 60 -c 2 -a 0 -i 19 -k RTR
h -t 15.082268593 -s 7 -d 1 -p DSR -e 60 -c 2 -a 0 -i 19 -k RTR
+ -t 15.083600070 -s 11 -d -1 -p DSR -e 92 -c 2 -a 0 -i 16 -k RTR 
- -t 15.083600070 -s 11 -d -1 -p DSR -e 92 -c 2 -a 0 -i 16 -k RTR
h -t 15.083600070 -s 11 -d -1 -p DSR -e 92 -c 2 -a 0 -i 16 -k RTR
+ -t 15.085759916 -s 23 -d 15 -p DSR -e 68 -c 2 -a 0 -i 23 -k RTR 
- -t 15.085759916 -s 23 -d 15 -p DSR -e 68 -c 2 -a 0 -i 23 -k RTR
h -t 15.085759916 -s 23 -d 15 -p DSR -e 68 -c 2 -a 0 -i 23 -k RTR
+ -t 15.086669973 -s 23 -d 19 -p DSR -e 68 -c 2 -a 0 -i 27 -k RTR 
- -t 15.086669973 -s 23 -d 19 -p DSR -e 68 -c 2 -a 0 -i 27 -k RTR
h -t 15.086669973 -s 23 -d 19 -p DSR -e 68 -c 2 -a 0 -i 27 -k RTR
+ -t 15.086951158 -s 23 -d 9 -p DSR -e 60 -c 2 -a 0 -i 24 -k RTR 
- -t 15.086951158 -s 23 -d 9 -p DSR -e 60 -c 2 -a 0 -i 24 -k RTR
h -t 15.086951158 -s 23 -d 9 -p DSR -e 60 -c 2 -a 0 -i 24 -k RTR
+ -t 15.087609752 -s 6 -d 4 -p DSR -e 60 -c 2 -a 0 -i 22 -k RTR 
- -t 15.087609752 -s 6 -d 4 -p DSR -e 60 -c 2 -a 0 -i 22 -k RTR
h -t 15.087609752 -s 6 -d 4 -p DSR -e 60 -c 2 -a 0 -i 22 -k RTR
+ -t 15.087810680 -s 14 -d -1 -p DSR -e 92 -c 2 -a 0 -i 16 -k RTR 
- -t 15.087810680 -s 14 -d -1 -p DSR -e 92 -c 2 -a 0 -i 16 -k RTR
h -t 15.087810680 -s 14 -d -1 -p DSR -e 92 -c 2 -a 0 -i 16 -k RTR
+ -t 15.087903960 -s 21 -d 7 -p DSR -e 60 -c 2 -a 0 -i 25 -k RTR 
- -t 15.087903960 -s 21 -d 7 -p DSR -e 60 -c 2 -a 0 -i 25 -k RTR
h -t 15.087903960 -s 21 -d 7 -p DSR -e 60 -c 2 -a 0 -i 25 -k RTR
+ -t 15.087950851 -s 20 -d -1 -p DSR -e 92 -c 2 -a 0 -i 16 -k RTR 
- -t 15.087950851 -s 20 -d -1 -p DSR -e 92 -c 2 -a 0 -i 16 -k RTR
h -t 15.087950851 -s 20 -d -1 -p DSR -e 92 -c 2 -a 0 -i 16 -k RTR
+ -t 15.088113531 -s 13 -d -1 -p DSR -e 92 -c 2 -a 0 -i 16 -k RTR 
- -t 15.088113531 -s 13 -d -1 -p DSR -e 92 -c 2 -a 0 -i 16 -k RTR
h -t 15.088113531 -s 13 -d -1 -p DSR -e 92 -c 2 -a 0 -i 16 -k RTR
+ -t 15.088470080 -s 21 -d 10 -p DSR -e 60 -c 2 -a 0 -i 26 -k RTR 
- -t 15.088470080 -s 21 -d 10 -p DSR -e 60 -c 2 -a 0 -i 26 -k RTR
h -t 15.088470080 -s 21 -d 10 -p DSR -e 60 -c 2 -a 0 -i 26 -k RTR
+ -t 15.089567224 -s 9 -d 7 -p DSR -e 60 -c 2 -a 0 -i 24 -k RTR 
- -t 15.089567224 -s 9 -d 7 -p DSR -e 60 -c 2 -a 0 -i 24 -k RTR
h -t 15.089567224 -s 9 -d 7 -p DSR -e 60 -c 2 -a 0 -i 24 -k RTR
+ -t 15.090331365 -s 18 -d -1 -p DSR -e 92 -c 2 -a 0 -i 16 -k RTR 
- -t 15.090331365 -s 18 -d -1 -p DSR -e 92 -c 2 -a 0 -i 16 -k RTR
h -t 15.090331365 -s 18 -d -1 -p DSR -e 92 -c 2 -a 0 -i 16 -k RTR
+ -t 15.090989766 -s 12 -d -1 -p DSR -e 92 -c 2 -a 0 -i 16 -k RTR 
- -t 15.090989766 -s 12 -d -1 -p DSR -e 92 -c 2 -a 0 -i 16 -k RTR
h -t 15.090989766 -s 12 -d -1 -p DSR -e 92 -c 2 -a 0 -i 16 -k RTR
+ -t 15.092366892 -s 17 -d -1 -p DSR -e 120 -c 2 -a 0 -i 16 -k RTR 
- -t 15.092366892 -s 17 -d -1 -p DSR -e 120 -c 2 -a 0 -i 16 -k RTR
h -t 15.092366892 -s 17 -d -1 -p DSR -e 120 -c 2 -a 0 -i 16 -k RTR
+ -t 15.092606464 -s 16 -d -1 -p DSR -e 92 -c 2 -a 0 -i 16 -k RTR 
- -t 15.092606464 -s 16 -d -1 -p DSR -e 92 -c 2 -a 0 -i 16 -k RTR
h -t 15.092606464 -s 16 -d -1 -p DSR -e 92 -c 2 -a 0 -i 16 -k RTR
+ -t 15.092848539 -s 7 -d 1 -p DSR -e 60 -c 2 -a 0 -i 18 -k RTR 
- -t 15.092848539 -s 7 -d 1 -p DSR -e 60 -c 2 -a 0 -i 18 -k RTR
h -t 15.092848539 -s 7 -d 1 -p DSR -e 60 -c 2 -a 0 -i 18 -k RTR
+ -t 15.093291285 -s 19 -d -1 -p DSR -e 92 -c 2 -a 0 -i 16 -k RTR 
- -t 15.093291285 -s 19 -d -1 -p DSR -e 92 -c 2 -a 0 -i 16 -k RTR
h -t 15.093291285 -s 19 -d -1 -p DSR -e 92 -c 2 -a 0 -i 16 -k RTR
+ -t 15.093700666 -s 15 -d -1 -p DSR -e 120 -c 2 -a 0 -i 16 -k RTR 
- -t 15.093700666 -s 15 -d -1 -p DSR -e 120 -c 2 -a 0 -i 16 -k RTR
h -t 15.093700666 -s 15 -d -1 -p DSR -e 120 -c 2 -a 0 -i 16 -k RTR
+ -t 15.094887246 -s 4 -d 1 -p DSR -e 60 -c 2 -a 0 -i 17 -k RTR 
- -t 15.094887246 -s 4 -d 1 -p DSR -e 60 -c 2 -a 0 -i 17 -k RTR
h -t 15.094887246 -s 4 -d 1 -p DSR -e 60 -c 2 -a 0 -i 17 -k RTR
+ -t 15.096904246 -s 1 -d 4 -p cbr -e 556 -c 2 -a 0 -i 2 -k RTR 
- -t 15.096904246 -s 1 -d 4 -p cbr -e 556 -c 2 -a 0 -i 2 -k RTR
h -t 15.096904246 -s 1 -d 4 -p cbr -e 556 -c 2 -a 0 -i 2 -k RTR
+ -t 15.097729488 -s 21 -d 13 -p DSR -e 68 -c 2 -a 0 -i 28 -k RTR 
- -t 15.097729488 -s 21 -d 13 -p DSR -e 68 -c 2 -a 0 -i 28 -k RTR
h -t 15.097729488 -s 21 -d 13 -p DSR -e 68 -c 2 -a 0 -i 28 -k RTR
+ -t 15.104889868 -s 21 -d 18 -p DSR -e 68 -c 2 -a 0 -i 31 -k RTR 
- -t 15.104889868 -s 21 -d 18 -p DSR -e 68 -c 2 -a 0 -i 31 -k RTR
h -t 15.104889868 -s 21 -d 18 -p DSR -e 68 -c 2 -a 0 -i 31 -k RTR
+ -t 15.106776428 -s 21 -d 9 -p DSR -e 52 -c 2 -a 0 -i 33 -k RTR 
- -t 15.106776428 -s 21 -d 9 -p DSR -e 52 -c 2 -a 0 -i 33 -k RTR
h -t 15.106776428 -s 21 -d 9 -p DSR -e 52 -c 2 -a 0 -i 33 -k RTR
+ -t 15.107935826 -s 21 -d 19 -p DSR -e 68 -c 2 -a 0 -i 32 -k RTR 
- -t 15.107935826 -s 21 -d 19 -p DSR -e 68 -c 2 -a 0 -i 32 -k RTR
h -t 15.107935826 -s 21 -d 19 -p DSR -e 68 -c 2 -a 0 -i 32 -k RTR
+ -t 15.114415733 -s 21 -d 20 -p DSR -e 68 -c 2 -a 0 -i 34 -k RTR 
- -t 15.114415733 -s 21 -d 20 -p DSR -e 68 -c 2 -a 0 -i 34 -k RTR
h -t 15.114415733 -s 21 -d 20 -p DSR -e 68 -c 2 -a 0 -i 34 -k RTR
+ -t 15.115321721 -s 19 -d 10 -p DSR -e 68 -c 2 -a 0 -i 27 -k RTR 
- -t 15.115321721 -s 19 -d 10 -p DSR -e 68 -c 2 -a 0 -i 27 -k RTR
h -t 15.115321721 -s 19 -d 10 -p DSR -e 68 -c 2 -a 0 -i 27 -k RTR
+ -t 15.118700582 -s 0 -d -1 -p cbr -e 512 -c 2 -a 0 -i 36 -k AGT 
- -t 15.118700582 -s 0 -d -1 -p cbr -e 512 -c 2 -a 0 -i 36 -k AGT
h -t 15.118700582 -s 0 -d -1 -p cbr -e 512 -c 2 -a 0 -i 36 -k AGT
+ -t 15.122174429 -s 4 -d 22 -p cbr -e 556 -c 2 -a 0 -i 2 -k RTR 
- -t 15.122174429 -s 4 -d 22 -p cbr -e 556 -c 2 -a 0 -i 2 -k RTR
h -t 15.122174429 -s 4 -d 22 -p cbr -e 556 -c 2 -a 0 -i 2 -k RTR
+ -t 15.128135665 -s 23 -d 4 -p DSR -e 52 -c 2 -a 0 -i 38 -k RTR 
- -t 15.128135665 -s 23 -d 4 -p DSR -e 52 -c 2 -a 0 -i 38 -k RTR
h -t 15.128135665 -s 23 -d 4 -p DSR -e 52 -c 2 -a 0 -i 38 -k RTR
+ -t 15.128160665 -s 22 -d 23 -p cbr -e 556 -c 2 -a 0 -i 2 -k RTR 
- -t 15.128160665 -s 22 -d 23 -p cbr -e 556 -c 2 -a 0 -i 2 -k RTR
h -t 15.128160665 -s 22 -d 23 -p cbr -e 556 -c 2 -a 0 -i 2 -k RTR
+ -t 15.132506659 -s 21 -d 22 -p DSR -e 60 -c 2 -a 0 -i 39 -k RTR 
- -t 15.132506659 -s 21 -d 22 -p DSR -e 60 -c 2 -a 0 -i 39 -k RTR
h -t 15.132506659 -s 21 -d 22 -p DSR -e 60 -c 2 -a 0 -i 39 -k RTR
+ -t 15.133282989 -s 1 -d -1 -p cbr -e 512 -c 2 -a 0 -i 40 -k AGT 
- -t 15.133282989 -s 1 -d -1 -p cbr -e 512 -c 2 -a 0 -i 40 -k AGT
h -t 15.133282989 -s 1 -d -1 -p cbr -e 512 -c 2 -a 0 -i 40 -k AGT
+ -t 15.133282989 -s 1 -d 3 -p cbr -e 552 -c 2 -a 0 -i 40 -k RTR 
- -t 15.133282989 -s 1 -d 3 -p cbr -e 552 -c 2 -a 0 -i 40 -k RTR
h -t 15.133282989 -s 1 -d 3 -p cbr -e 552 -c 2 -a 0 -i 40 -k RTR
+ -t 15.136494073 -s 15 -d 13 -p DSR -e 68 -c 2 -a 0 -i 23 -k RTR 
- -t 15.136494073 -s 15 -d 13 -p DSR -e 68 -c 2 -a 0 -i 23 -k RTR
h -t 15.136494073 -s 15 -d 13 -p DSR -e 68 -c 2 -a 0 -i 23 -k RTR
+ -t 15.141391876 -s 21 -d 16 -p DSR -e 68 -c 2 -a 0 -i 41 -k RTR 
- -t 15.141391876 -s 21 -d 16 -p DSR -e 68 -c 2 -a 0 -i 41 -k RTR
h -t 15.141391876 -s 21 -d 16 -p DSR -e 68 -c 2 -a 0 -i 41 -k RTR
+ -t 15.141942291 -s 3 -d -1 -p cbr -e 512 -c 2 -a 0 -i 44 -k AGT 
- -t 15.141942291 -s 3 -d -1 -p cbr -e 512 -c 2 -a 0 -i 44 -k AGT
h -t 15.141942291 -s 3 -d -1 -p cbr -e 512 -c 2 -a 0 -i 44 -k AGT
+ -t 15.142016133 -s 10 -d 4 -p DSR -e 68 -c 2 -a 0 -i 27 -k RTR 
- -t 15.142016133 -s 10 -d 4 -p DSR -e 68 -c 2 -a 0 -i 27 -k RTR
h -t 15.142016133 -s 10 -d 4 -p DSR -e 68 -c 2 -a 0 -i 27 -k RTR
+ -t 15.146564881 -s 21 -d 15 -p DSR -e 76 -c 2 -a 0 -i 42 -k RTR 
- -t 15.146564881 -s 21 -d 15 -p DSR -e 76 -c 2 -a 0 -i 42 -k RTR
h -t 15.146564881 -s 21 -d 15 -p DSR -e 76 -c 2 -a 0 -i 42 -k RTR
r -t 15.149697056 -s 23 -d 23 -p cbr -e 512 -c 2 -a 0 -i 2 -k AGT
+ -t 15.153008013 -s 7 -d 1 -p DSR -e 60 -c 2 -a 0 -i 24 -k RTR 
- -t 15.153008013 -s 7 -d 1 -p DSR -e 60 -c 2 -a 0 -i 24 -k RTR
h -t 15.153008013 -s 7 -d 1 -p DSR -e 60 -c 2 -a 0 -i 24 -k RTR
+ -t 15.154624334 -s 21 -d 12 -p DSR -e 68 -c 2 -a 0 -i 46 -k RTR 
- -t 15.154624334 -s 21 -d 12 -p DSR -e 68 -c 2 -a 0 -i 46 -k RTR
h -t 15.154624334 -s 21 -d 12 -p DSR -e 68 -c 2 -a 0 -i 46 -k RTR
+ -t 15.160813323 -s 0 -d 1 -p cbr -e 560 -c 2 -a 0 -i 0 -k RTR 
- -t 15.160813323 -s 0 -d 1 -p cbr -e 560 -c 2 -a 0 -i 0 -k RTR
h -t 15.160813323 -s 0 -d 1 -p cbr -e 560 -c 2 -a 0 -i 0 -k RTR
+ -t 15.160813323 -s 0 -d 1 -p cbr -e 560 -c 2 -a 0 -i 36 -k RTR 
- -t 15.160813323 -s 0 -d 1 -p cbr -e 560 -c 2 -a 0 -i 36 -k RTR
h -t 15.160813323 -s 0 -d 1 -p cbr -e 560 -c 2 -a 0 -i 36 -k RTR
+ -t 15.161000249 -s 3 -d 23 -p cbr -e 552 -c 2 -a 0 -i 40 -k RTR 
- -t 15.161000249 -s 3 -d 23 -p cbr -e 552 -c 2 -a 0 -i 40 -k RTR
h -t 15.161000249 -s 3 -d 23 -p cbr -e 552 -c 2 -a 0 -i 40 -k RTR
+ -t 15.167158582 -s 1 -d 4 -p cbr -e 560 -c 2 -a 0 -i 0 -k RTR 
- -t 15.167158582 -s 1 -d 4 -p cbr -e 560 -c 2 -a 0 -i 0 -k RTR
h -t 15.167158582 -s 1 -d 4 -p cbr -e 560 -c 2 -a 0 -i 0 -k RTR
r -t 15.173133564 -s 23 -d 23 -p cbr -e 512 -c 2 -a 0 -i 40 -k AGT
+ -t 15.175142108 -s 7 -d 4 -p DSR -e 60 -c 2 -a 0 -i 25 -k RTR 
- -t 15.175142108 -s 7 -d 4 -p DSR -e 60 -c 2 -a 0 -i 25 -k RTR
h -t 15.175142108 -s 7 -d 4 -p DSR -e 60 -c 2 -a 0 -i 25 -k RTR
+ -t 15.177143854 -s 12 -d 10 -p DSR -e 68 -c 2 -a 0 -i 46 -k RTR 
- -t 15.177143854 -s 12 -d 10 -p DSR -e 68 -c 2 -a 0 -i 46 -k RTR
h -t 15.177143854 -s 12 -d 10 -p DSR -e 68 -c 2 -a 0 -i 46 -k RTR
+ -t 15.179078561 -s 4 -d 1 -p DSR -e 52 -c 2 -a 0 -i 38 -k RTR 
- -t 15.179078561 -s 4 -d 1 -p DSR -e 52 -c 2 -a 0 -i 38 -k RTR
h -t 15.179078561 -s 4 -d 1 -p DSR -e 52 -c 2 -a 0 -i 38 -k RTR
+ -t 15.187088561 -s 4 -d 22 -p cbr -e 560 -c 2 -a 0 -i 0 -k RTR 
- -t 15.187088561 -s 4 -d 22 -p cbr -e 560 -c 2 -a 0 -i 0 -k RTR
h -t 15.187088561 -s 4 -d 22 -p cbr -e 560 -c 2 -a 0 -i 0 -k RTR
+ -t 15.189197407 -s 4 -d 1 -p DSR -e 60 -c 2 -a 0 -i 22 -k RTR 
- -t 15.189197407 -s 4 -d 1 -p DSR -e 60 -c 2 -a 0 -i 22 -k RTR
h -t 15.189197407 -s 4 -d 1 -p DSR -e 60 -c 2 -a 0 -i 22 -k RTR
+ -t 15.191240073 -s 4 -d 1 -p DSR -e 68 -c 2 -a 0 -i 27 -k RTR 
- -t 15.191240073 -s 4 -d 1 -p DSR -e 68 -c 2 -a 0 -i 27 -k RTR
h -t 15.191240073 -s 4 -d 1 -p DSR -e 68 -c 2 -a 0 -i 27 -k RTR
+ -t 15.193197407 -s 4 -d 3 -p DSR -e 60 -c 2 -a 0 -i 25 -k RTR 
- -t 15.193197407 -s 4 -d 3 -p DSR -e 60 -c 2 -a 0 -i 25 -k RTR
h -t 15.193197407 -s 4 -d 3 -p DSR -e 60 -c 2 -a 0 -i 25 -k RTR
+ -t 15.197562395 -s 3 -d 4 -p cbr -e 556 -c 2 -a 0 -i 4 -k RTR 
- -t 15.197562395 -s 3 -d 4 -p cbr -e 556 -c 2 -a 0 -i 4 -k RTR
h -t 15.197562395 -s 3 -d 4 -p cbr -e 556 -c 2 -a 0 -i 4 -k RTR
+ -t 15.197562395 -s 3 -d 4 -p cbr -e 556 -c 2 -a 0 -i 44 -k RTR 
- -t 15.197562395 -s 3 -d 4 -p cbr -e 556 -c 2 -a 0 -i 44 -k RTR
h -t 15.197562395 -s 3 -d 4 -p cbr -e 556 -c 2 -a 0 -i 44 -k RTR
+ -t 15.199221095 -s 4 -d 0 -p DSR -e 52 -c 2 -a 0 -i 47 -k RTR 
- -t 15.199221095 -s 4 -d 0 -p DSR -e 52 -c 2 -a 0 -i 47 -k RTR
h -t 15.199221095 -s 4 -d 0 -p DSR -e 52 -c 2 -a 0 -i 47 -k RTR
+ -t 15.199246016 -s 1 -d 4 -p cbr -e 560 -c 2 -a 0 -i 36 -k RTR 
- -t 15.199246016 -s 1 -d 4 -p cbr -e 560 -c 2 -a 0 -i 36 -k RTR
h -t 15.199246016 -s 1 -d 4 -p cbr -e 560 -c 2 -a 0 -i 36 -k RTR
+ -t 15.205287840 -s 7 -d 3 -p DSR -e 48 -c 2 -a 0 -i 48 -k RTR 
- -t 15.205287840 -s 7 -d 3 -p DSR -e 48 -c 2 -a 0 -i 48 -k RTR
h -t 15.205287840 -s 7 -d 3 -p DSR -e 48 -c 2 -a 0 -i 48 -k RTR
+ -t 15.205312762 -s 4 -d 7 -p cbr -e 556 -c 2 -a 0 -i 4 -k RTR 
- -t 15.205312762 -s 4 -d 7 -p cbr -e 556 -c 2 -a 0 -i 4 -k RTR
h -t 15.205312762 -s 4 -d 7 -p cbr -e 556 -c 2 -a 0 -i 4 -k RTR
+ -t 15.211350998 -s 22 -d 23 -p cbr -e 560 -c 2 -a 0 -i 0 -k RTR 
- -t 15.211350998 -s 22 -d 23 -p cbr -e 560 -c 2 -a 0 -i 0 -k RTR
h -t 15.211350998 -s 22 -d 23 -p cbr -e 560 -c 2 -a 0 -i 0 -k RTR
+ -t 15.219363646 -s 4 -d 22 -p cbr -e 560 -c 2 -a 0 -i 36 -k RTR 
- -t 15.219363646 -s 4 -d 22 -p cbr -e 560 -c 2 -a 0 -i 36 -k RTR
h -t 15.219363646 -s 4 -d 22 -p cbr -e 560 -c 2 -a 0 -i 36 -k RTR
+ -t 15.221371367 -s 21 -d 7 -p DSR -e 60 -c 2 -a 0 -i 20 -k RTR 
- -t 15.221371367 -s 21 -d 7 -p DSR -e 60 -c 2 -a 0 -i 20 -k RTR
h -t 15.221371367 -s 21 -d 7 -p DSR -e 60 -c 2 -a 0 -i 20 -k RTR
+ -t 15.223277936 -s 4 -d 3 -p DSR -e 56 -c 2 -a 0 -i 21 -k RTR 
- -t 15.223277936 -s 4 -d 3 -p DSR -e 56 -c 2 -a 0 -i 21 -k RTR
h -t 15.223277936 -s 4 -d 3 -p DSR -e 56 -c 2 -a 0 -i 21 -k RTR
+ -t 15.231234769 -s 0 -d -1 -p cbr -e 512 -c 2 -a 0 -i 49 -k AGT 
- -t 15.231234769 -s 0 -d -1 -p cbr -e 512 -c 2 -a 0 -i 49 -k AGT
h -t 15.231234769 -s 0 -d -1 -p cbr -e 512 -c 2 -a 0 -i 49 -k AGT
+ -t 15.231234769 -s 0 -d 4 -p cbr -e 556 -c 2 -a 0 -i 49 -k RTR 
- -t 15.231234769 -s 0 -d 4 -p cbr -e 556 -c 2 -a 0 -i 49 -k RTR
h -t 15.231234769 -s 0 -d 4 -p cbr -e 556 -c 2 -a 0 -i 49 -k RTR
+ -t 15.233164917 -s 10 -d 4 -p DSR -e 60 -c 2 -a 0 -i 15 -k RTR 
- -t 15.233164917 -s 10 -d 4 -p DSR -e 60 -c 2 -a 0 -i 15 -k RTR
h -t 15.233164917 -s 10 -d 4 -p DSR -e 60 -c 2 -a 0 -i 15 -k RTR
+ -t 15.236001547 -s 1 -d -1 -p cbr -e 512 -c 2 -a 0 -i 50 -k AGT 
- -t 15.236001547 -s 1 -d -1 -p cbr -e 512 -c 2 -a 0 -i 50 -k AGT
h -t 15.236001547 -s 1 -d -1 -p cbr -e 512 -c 2 -a 0 -i 50 -k AGT
+ -t 15.236001547 -s 1 -d 3 -p cbr -e 552 -c 2 -a 0 -i 50 -k RTR 
- -t 15.236001547 -s 1 -d 3 -p cbr -e 552 -c 2 -a 0 -i 50 -k RTR
h -t 15.236001547 -s 1 -d 3 -p cbr -e 552 -c 2 -a 0 -i 50 -k RTR
r -t 15.239143251 -s 23 -d 23 -p cbr -e 512 -c 2 -a 0 -i 0 -k AGT
+ -t 15.241296022 -s 13 -d 7 -p DSR -e 68 -c 2 -a 0 -i 23 -k RTR 
- -t 15.241296022 -s 13 -d 7 -p DSR -e 68 -c 2 -a 0 -i 23 -k RTR
h -t 15.241296022 -s 13 -d 7 -p DSR -e 68 -c 2 -a 0 -i 23 -k RTR
+ -t 15.243324219 -s 4 -d 1 -p DSR -e 60 -c 2 -a 0 -i 15 -k RTR 
- -t 15.243324219 -s 4 -d 1 -p DSR -e 60 -c 2 -a 0 -i 15 -k RTR
h -t 15.243324219 -s 4 -d 1 -p DSR -e 60 -c 2 -a 0 -i 15 -k RTR
+ -t 15.249275574 -s 7 -d 3 -p DSR -e 48 -c 2 -a 0 -i 51 -k RTR 
- -t 15.249275574 -s 7 -d 3 -p DSR -e 48 -c 2 -a 0 -i 51 -k RTR
h -t 15.249275574 -s 7 -d 3 -p DSR -e 48 -c 2 -a 0 -i 51 -k RTR
+ -t 15.249300496 -s 4 -d 7 -p cbr -e 556 -c 2 -a 0 -i 44 -k RTR 
- -t 15.249300496 -s 4 -d 7 -p cbr -e 556 -c 2 -a 0 -i 44 -k RTR
h -t 15.249300496 -s 4 -d 7 -p cbr -e 556 -c 2 -a 0 -i 44 -k RTR
+ -t 15.252881297 -s 7 -d 1 -p DSR -e 52 -c 2 -a 0 -i 11 -k RTR 
- -t 15.252881297 -s 7 -d 1 -p DSR -e 52 -c 2 -a 0 -i 11 -k RTR
h -t 15.252881297 -s 7 -d 1 -p DSR -e 52 -c 2 -a 0 -i 11 -k RTR
+ -t 15.260738515 -s 3 -d 23 -p cbr -e 552 -c 2 -a 0 -i 50 -k RTR 
- -t 15.260738515 -s 3 -d 23 -p cbr -e 552 -c 2 -a 0 -i 50 -k RTR
h -t 15.260738515 -s 3 -d 23 -p cbr -e 552 -c 2 -a 0 -i 50 -k RTR
+ -t 15.266785084 -s 4 -d 22 -p cbr -e 556 -c 2 -a 0 -i 49 -k RTR 
- -t 15.266785084 -s 4 -d 22 -p cbr -e 556 -c 2 -a 0 -i 49 -k RTR
h -t 15.266785084 -s 4 -d 22 -p cbr -e 556 -c 2 -a 0 -i 49 -k RTR
r -t 15.276931732 -s 23 -d 23 -p cbr -e 512 -c 2 -a 0 -i 50 -k AGT
+ -t 15.277429689 -s 3 -d -1 -p cbr -e 512 -c 2 -a 0 -i 52 -k AGT 
- -t 15.277429689 -s 3 -d -1 -p cbr -e 512 -c 2 -a 0 -i 52 -k AGT
h -t 15.277429689 -s 3 -d -1 -p cbr -e 512 -c 2 -a 0 -i 52 -k AGT
+ -t 15.277429689 -s 3 -d 7 -p cbr -e 552 -c 2 -a 0 -i 52 -k RTR 
- -t 15.277429689 -s 3 -d 7 -p cbr -e 552 -c 2 -a 0 -i 52 -k RTR
h -t 15.277429689 -s 3 -d 7 -p cbr -e 552 -c 2 -a 0 -i 52 -k RTR
+ -t 15.279722896 -s 4 -d 1 -p DSR -e 52 -c 2 -a 0 -i 10 -k RTR 
- -t 15.279722896 -s 4 -d 1 -p DSR -e 52 -c 2 -a 0 -i 10 -k RTR
h -t 15.279722896 -s 4 -d 1 -p DSR -e 52 -c 2 -a 0 -i 10 -k RTR
+ -t 15.287754878 -s 7 -d 21 -p cbr -e 552 -c 2 -a 0 -i 52 -k RTR 
- -t 15.287754878 -s 7 -d 21 -p cbr -e 552 -c 2 -a 0 -i 52 -k RTR
h -t 15.287754878 -s 7 -d 21 -p cbr -e 552 -c 2 -a 0 -i 52 -k RTR
+ -t 15.290030601 -s 15 -d 13 -p DSR -e 76 -c 2 -a 0 -i 42 -k RTR 
- -t 15.290030601 -s 15 -d 13 -p DSR -e 76 -c 2 -a 0 -i 42 -k RTR
h -t 15.290030601 -s 15 -d 13 -p DSR -e 76 -c 2 -a 0 -i 42 -k RTR
+ -t 15.291945582 -s 24 -d 1 -p DSR -e 52 -c 2 -a 0 -i 13 -k RTR 
- -t 15.291945582 -s 24 -d 1 -p DSR -e 52 -c 2 -a 0 -i 13 -k RTR
h -t 15.291945582 -s 24 -d 1 -p DSR -e 52 -c 2 -a 0 -i 13 -k RTR
+ -t 15.294048327 -s 7 -d 1 -p DSR -e 68 -c 2 -a 0 -i 23 -k RTR 
- -t 15.294048327 -s 7 -d 1 -p DSR -e 68 -c 2 -a 0 -i 23 -k RTR
h -t 15.294048327 -s 7 -d 1 -p DSR -e 68 -c 2 -a 0 -i 23 -k RTR
r -t 15.302037799 -s 21 -d 21 -p cbr -e 512 -c 2 -a 0 -i 52 -k AGT
+ -t 15.304314492 -s 13 -d 7 -p DSR -e 76 -c 2 -a 0 -i 42 -k RTR 
- -t 15.304314492 -s 13 -d 7 -p DSR -e 76 -c 2 -a 0 -i 42 -k RTR
h -t 15.304314492 -s 13 -d 7 -p DSR -e 76 -c 2 -a 0 -i 42 -k RTR
+ -t 15.306420492 -s 7 -d 4 -p DSR -e 76 -c 2 -a 0 -i 42 -k RTR 
- -t 15.306420492 -s 7 -d 4 -p DSR -e 76 -c 2 -a 0 -i 42 -k RTR
h -t 15.306420492 -s 7 -d 4 -p DSR -e 76 -c 2 -a 0 -i 42 -k RTR
+ -t 15.316651825 -s 7 -d 21 -p cbr -e 556 -c 2 -a 0 -i 4 -k RTR 
- -t 15.316651825 -s 7 -d 21 -p cbr -e 556 -c 2 -a 0 -i 4 -k RTR
h -t 15.316651825 -s 7 -d 21 -p cbr -e 556 -c 2 -a 0 -i 4 -k RTR