Sconfig 0.00000 tap: on snoop: rts? on errs? on
Sconfig 0.00000 salvage: on !bd replies? on
Sconfig 0.00000 grat error: on grat reply: on
Sconfig 0.00000 $reply for props: on ring 0 search: on
Sconfig 0.00000 using MOBICACHE
s 15.000000000 _0_ AGT  --- 0 cbr 512 [0 0 0 0] ------- [0:0 7:0 32 0] [0] 0 0
r 15.000000000 _0_ RTR  --- 0 cbr 512 [0 0 0 0] ------- [0:0 7:0 32 0] [0] 0 0
s 15.000000000 _1_ AGT  --- 2 cbr 512 [0 0 0 0] ------- [1:0 6:0 32 0] [0] 0 0
r 15.000000000 _1_ RTR  --- 2 cbr 512 [0 0 0 0] ------- [1:0 6:0 32 0] [0] 0 0
s 15.000000000 _3_ AGT  --- 4 cbr 512 [0 0 0 0] ------- [3:0 2:0 32 0] [0] 0 0
r 15.000000000 _3_ RTR  --- 4 cbr 512 [0 0 0 0] ------- [3:0 2:0 32 0] [0] 0 0
s 15.006147633 _3_ RTR  --- 5 DSR 32 [0 0 0 0] ------- [3:255 2:255 32 0] 1 [1 1] [0 1 0 0->0] [0 0 0 0->0]
r 15.007060300 _0_ RTR  --- 5 DSR 32 [0 ffffffff 3 800] ------- [3:255 2:255 32 0] 1 [1 1] [0 1 0 0->0] [0 0 0 0->0]
r 15.007060300 _6_ RTR  --- 5 DSR 32 [0 ffffffff 3 800] ------- [3:255 2:255 32 0] 1 [1 1] [0 1 0 0->0] [0 0 0 0->0]
r 15.007060300 _4_ RTR  --- 5 DSR 32 [0 ffffffff 3 800] ------- [3:255 2:255 32 0] 1 [1 1] [0 1 0 0->0] [0 0 0 0->0]
s 15.007717238 _0_ RTR  --- 1 DSR 32 [0 0 0 0] ------- [0:255 7:255 32 0] 1 [1 1] [0 1 0 0->0] [0 0 0 0->0]
s 15.008077498 _1_ RTR  --- 3 DSR 32 [0 0 0 0] ------- [1:255 6:255 32 0] 1 [1 1] [0 1 0 0->0] [0 0 0 0->0]
r 15.008609904 _3_ RTR  --- 1 DSR 32 [0 ffffffff 0 800] ------- [0:255 7:255 32 0] 1 [1 1] [0 1 0 0->0] [0 0 0 0->0]
r 15.008609904 _1_ RTR  --- 1 DSR 32 [0 ffffffff 0 800] ------- [0:255 7:255 32 0] 1 [1 1] [0 1 0 0->0] [0 0 0 0->0]
r 15.009852571 _0_ RTR  --- 3 DSR 32 [0 ffffffff 1 800] ------- [1:255 6:255 32 0] 1 [1 1] [0 1 0 0->0] [0 0 0 0->0]
r 15.009852571 _4_ RTR  --- 3 DSR 32 [0 ffffffff 1 800] ------- [1:255 6:255 32 0] 1 [1 1] [0 1 0 0->0] [0 0 0 0->0]
r 15.009852571 _2_ RTR  --- 3 DSR 32 [0 ffffffff 1 800] ------- [1:255 6:255 32 0] 1 [1 1] [0 1 0 0->0] [0 0 0 0->0]
r 15.009852650 _9_ RTR  --- 3 DSR 32 [0 ffffffff 1 800] ------- [1:255 6:255 32 0] 1 [1 1] [0 1 0 0->0] [0 0 0 0->0]
s 15.037959781 _1_ RTR  --- 8 DSR 32 [0 0 0 0] ------- [1:255 6:255 32 0] 1 [1 2] [0 2 0 0->16] [0 0 0 0->0]
r 15.039312448 _0_ RTR  --- 8 DSR 32 [0 ffffffff 1 800] ------- [1:255 6:255 32 0] 1 [1 2] [0 2 0 0->16] [0 0 0 0->0]
r 15.039312448 _4_ RTR  --- 8 DSR 32 [0 ffffffff 1 800] ------- [1:255 6:255 32 0] 1 [1 2] [0 2 0 0->16] [0 0 0 0->0]
r 15.039312448 _2_ RTR  --- 8 DSR 32 [0 ffffffff 1 800] ------- [1:255 6:255 32 0] 1 [1 2] [0 2 0 0->16] [0 0 0 0->0]
r 15.039312527 _9_ RTR  --- 8 DSR 32 [0 ffffffff 1 800] ------- [1:255 6:255 32 0] 1 [1 2] [0 2 0 0->16] [0 0 0 0->0]
f 15.041709729 _0_ RTR  --- 8 DSR 48 [0 ffffffff 1 800] ------- [1:255 6:255 32 0] 2 [1 2] [0 2 0 0->16] [0 0 0 0->0]
r 15.042630395 _3_ RTR  --- 8 DSR 48 [0 ffffffff 0 800] ------- [1:255 6:255 32 0] 2 [1 2] [0 2 0 0->16] [0 0 0 0->0]
r 15.042630395 _1_ RTR  --- 8 DSR 48 [0 ffffffff 0 800] ------- [1:255 6:255 32 0] 2 [1 2] [0 2 0 0->16] [0 0 0 0->0]
f 15.043718373 _2_ RTR  --- 8 DSR 48 [0 ffffffff 1 800] ------- [1:255 6:255 32 0] 2 [1 2] [0 2 0 0->16] [0 0 0 0->0]
f 15.044173334 _4_ RTR  --- 8 DSR 48 [0 ffffffff 1 800] ------- [1:255 6:255 32 0] 2 [1 2] [0 2 0 0->16] [0 0 0 0->0]
r 15.044738706 _9_ RTR  --- 8 DSR 48 [0 ffffffff 2 800] ------- [1:255 6:255 32 0] 2 [1 2] [0 2 0 0->16] [0 0 0 0->0]
r 15.044739040 _1_ RTR  --- 8 DSR 48 [0 ffffffff 2 800] ------- [1:255 6:255 32 0] 2 [1 2] [0 2 0 0->16] [0 0 0 0->0]
r 15.044739040 _5_ RTR  --- 8 DSR 48 [0 ffffffff 2 800] ------- [1:255 6:255 32 0] 2 [1 2] [0 2 0 0->16] [0 0 0 0->0]
r 15.046453982 _1_ RTR  --- 8 DSR 48 [0 ffffffff 4 800] ------- [1:255 6:255 32 0] 2 [1 2] [0 2 0 0->16] [0 0 0 0->0]
r 15.046453982 _3_ RTR  --- 8 DSR 48 [0 ffffffff 4 800] ------- [1:255 6:255 32 0] 2 [1 2] [0 2 0 0->16] [0 0 0 0->0]
r 15.046453982 _7_ RTR  --- 8 DSR 48 [0 ffffffff 4 800] ------- [1:255 6:255 32 0] 2 [1 2] [0 2 0 0->16] [0 0 0 0->0]
r 15.046453982 _5_ RTR  --- 8 DSR 48 [0 ffffffff 4 800] ------- [1:255 6:255 32 0] 2 [1 2] [0 2 0 0->16] [0 0 0 0->0]
r 15.046454061 _9_ RTR  --- 8 DSR 48 [0 ffffffff 4 800] ------- [1:255 6:255 32 0] 2 [1 2] [0 2 0 0->16] [0 0 0 0->0]
f 15.046827607 _9_ RTR  --- 8 DSR 48 [0 ffffffff 1 800] ------- [1:255 6:255 32 0] 2 [1 2] [0 2 0 0->16] [0 0 0 0->0]
r 15.047847941 _5_ RTR  --- 8 DSR 48 [0 ffffffff 9 800] ------- [1:255 6:255 32 0] 2 [1 2] [0 2 0 0->16] [0 0 0 0->0]
r 15.047847941 _2_ RTR  --- 8 DSR 48 [0 ffffffff 9 800] ------- [1:255 6:255 32 0] 2 [1 2] [0 2 0 0->16] [0 0 0 0->0]
r 15.047848353 _4_ RTR  --- 8 DSR 48 [0 ffffffff 9 800] ------- [1:255 6:255 32 0] 2 [1 2] [0 2 0 0->16] [0 0 0 0->0]
r 15.047848353 _1_ RTR  --- 8 DSR 48 [0 ffffffff 9 800] ------- [1:255 6:255 32 0] 2 [1 2] [0 2 0 0->16] [0 0 0 0->0]
f 15.047931205 _3_ RTR  --- 8 DSR 68 [0 ffffffff 0 800] ------- [1:255 6:255 32 0] 3 [1 2] [0 2 0 0->16] [0 0 0 0->0]
f 15.048652204 _5_ RTR  --- 8 DSR 68 [0 ffffffff 2 800] ------- [1:255 6:255 32 0] 3 [1 2] [0 2 0 0->16] [0 0 0 0->0]
f 15.049016183 _7_ RTR  --- 8 DSR 68 [0 ffffffff 4 800] ------- [1:255 6:255 32 0] 3 [1 2] [0 2 0 0->16] [0 0 0 0->0]
r 15.049423649 _0_ RTR  --- 8 DSR 68 [0 ffffffff 3 800] ------- [1:255 6:255 32 0] 3 [1 2] [0 2 0 0->16] [0 0 0 0->0]
r 15.049423649 _6_ RTR  --- 8 DSR 68 [0 ffffffff 3 800] ------- [1:255 6:255 32 0] 3 [1 2] [0 2 0 0->16] [0 0 0 0->0]
r 15.049423649 _4_ RTR  --- 8 DSR 68 [0 ffffffff 3 800] ------- [1:255 6:255 32 0] 3 [1 2] [0 2 0 0->16] [0 0 0 0->0]
r 15.050958649 _9_ RTR  --- 8 DSR 68 [0 ffffffff 5 800] ------- [1:255 6:255 32 0] 3 [1 2] [0 2 0 0->16] [0 0 0 0->0]
r 15.050958982 _2_ RTR  --- 8 DSR 68 [0 ffffffff 5 800] ------- [1:255 6:255 32 0] 3 [1 2] [0 2 0 0->16] [0 0 0 0->0]
r 15.050958982 _4_ RTR  --- 8 DSR 68 [0 ffffffff 5 800] ------- [1:255 6:255 32 0] 3 [1 2] [0 2 0 0->16] [0 0 0 0->0]
r 15.050958982 _8_ RTR  --- 8 DSR 68 [0 ffffffff 5 800] ------- [1:255 6:255 32 0] 3 [1 2] [0 2 0 0->16] [0 0 0 0->0]
r 15.052573925 _4_ RTR  --- 8 DSR 68 [0 ffffffff 7 800] ------- [1:255 6:255 32 0] 3 [1 2] [0 2 0 0->16] [0 0 0 0->0]
r 15.052573925 _6_ RTR  --- 8 DSR 68 [0 ffffffff 7 800] ------- [1:255 6:255 32 0] 3 [1 2] [0 2 0 0->16] [0 0 0 0->0]
r 15.052573925 _8_ RTR  --- 8 DSR 68 [0 ffffffff 7 800] ------- [1:255 6:255 32 0] 3 [1 2] [0 2 0 0->16] [0 0 0 0->0]
s 15.056366295 _6_ RTR  --- 9 DSR 60 [0 0 0 0] ------- [6:255 1:255 254 3] 4 [0 2] [1 2 4 1->6] [0 0 0 0->0]
r 15.058460295 _3_ RTR  --- 9 DSR 60 [13a 3 6 800] ------- [6:255 1:255 254 3] 4 [0 2] [1 2 4 1->6] [0 0 0 0->0]
f 15.058460295 _3_ RTR  --- 9 DSR 60 [13a 3 6 800] ------- [6:255 1:255 253 0] 4 [0 2] [1 2 4 1->6] [0 0 0 0->0]
f 15.058813813 _8_ RTR  --- 8 DSR 92 [0 ffffffff 5 800] ------- [1:255 6:255 32 0] 4 [1 2] [0 2 0 0->16] [0 0 0 0->0]
r 15.060758295 _0_ RTR  --- 9 DSR 60 [13a 0 3 800] ------- [6:255 1:255 253 0] 4 [0 2] [1 2 4 1->6] [0 0 0 0->0]
f 15.060758295 _0_ RTR  --- 9 DSR 60 [13a 0 3 800] ------- [6:255 1:255 252 1] 4 [0 2] [1 2 4 1->6] [0 0 0 0->0]
s 15.061230066 _6_ RTR  --- 10 DSR 60 [0 0 0 0] ------- [6:255 1:255 254 7] 4 [0 2] [1 2 4 1->6] [0 0 0 0->0]
r 15.063081628 _7_ RTR  --- 10 DSR 60 [13a 7 6 800] ------- [6:255 1:255 254 7] 4 [0 2] [1 2 4 1->6] [0 0 0 0->0]
f 15.063081628 _7_ RTR  --- 10 DSR 60 [13a 7 6 800] ------- [6:255 1:255 253 4] 4 [0 2] [1 2 4 1->6] [0 0 0 0->0]
r 15.064728961 _5_ RTR  --- 8 DSR 92 [0 ffffffff 8 800] ------- [1:255 6:255 32 0] 4 [1 2] [0 2 0 0->16] [0 0 0 0->0]
r 15.064728961 _7_ RTR  --- 8 DSR 92 [0 ffffffff 8 800] ------- [1:255 6:255 32 0] 4 [1 2] [0 2 0 0->16] [0 0 0 0->0]
s 15.066562534 _3_ RTR  --- 11 DSR 32 [0 0 0 0] ------- [3:255 2:255 32 0] 1 [1 2] [0 2 0 0->16] [0 0 0 0->0]
r 15.066572961 _4_ RTR  --- 10 DSR 60 [13a 4 7 800] ------- [6:255 1:255 253 4] 4 [0 2] [1 2 4 1->6] [0 0 0 0->0]
f 15.066572961 _4_ RTR  --- 10 DSR 60 [13a 4 7 800] ------- [6:255 1:255 252 1] 4 [0 2] [1 2 4 1->6] [0 0 0 0->0]
r 15.068850961 _1_ RTR  --- 10 DSR 60 [13a 1 4 800] ------- [6:255 1:255 252 1] 4 [0 2] [1 2 4 1->6] [0 0 0 0->0]
SFESTs 15.068850961 _1_ 2 [1 -> 6] 1(1) to 4 [1 |4 7 6 ]
s 15.068850961 _1_ RTR  --- 2 cbr 556 [0 0 0 0] ------- [1:0 6:0 32 4] [0] 0 0
SFESTs 15.074771860 _0_ 0 [0 -> 7] 1(1) to 1 [0 |1 4 7 ]
s 15.074771860 _0_ RTR  --- 0 cbr 556 [0 0 0 0] ------- [0:0 7:0 32 1] [0] 0 0
r 15.074776961 _4_ RTR  --- 2 cbr 556 [13a 4 1 800] ------- [1:0 6:0 32 4] [0] 1 0
f 15.074776961 _4_ RTR  --- 2 cbr 556 [13a 4 1 800] ------- [1:0 6:0 31 7] [0] 1 0
r 15.075983904 _0_ RTR  --- 11 DSR 32 [0 ffffffff 3 800] ------- [3:255 2:255 32 0] 1 [1 2] [0 2 0 0->16] [0 0 0 0->0]
r 15.075983904 _6_ RTR  --- 11 DSR 32 [0 ffffffff 3 800] ------- [3:255 2:255 32 0] 1 [1 2] [0 2 0 0->16] [0 0 0 0->0]
r 15.075983904 _4_ RTR  --- 11 DSR 32 [0 ffffffff 3 800] ------- [3:255 2:255 32 0] 1 [1 2] [0 2 0 0->16] [0 0 0 0->0]
f 15.080008009 _4_ RTR  --- 11 DSR 48 [0 ffffffff 3 800] ------- [3:255 2:255 32 0] 2 [1 2] [0 2 0 0->16] [0 0 0 0->0]
f 15.080765539 _6_ RTR  --- 11 DSR 48 [0 ffffffff 3 800] ------- [3:255 2:255 32 0] 2 [1 2] [0 2 0 0->16] [0 0 0 0->0]
r 15.081595904 _7_ RTR  --- 2 cbr 556 [13a 7 4 800] ------- [1:0 6:0 31 7] [0] 2 0
f 15.081595904 _7_ RTR  --- 2 cbr 556 [13a 7 4 800] ------- [1:0 6:0 30 6] [0] 2 0
r 15.083090847 _3_ RTR  --- 11 DSR 48 [0 ffffffff 6 800] ------- [3:255 2:255 32 0] 2 [1 2] [0 2 0 0->16] [0 0 0 0->0]
r 15.083090847 _7_ RTR  --- 11 DSR 48 [0 ffffffff 6 800] ------- [3:255 2:255 32 0] 2 [1 2] [0 2 0 0->16] [0 0 0 0->0]
f 15.083974846 _0_ RTR  --- 11 DSR 48 [0 ffffffff 3 800] ------- [3:255 2:255 32 0] 2 [1 2] [0 2 0 0->16] [0 0 0 0->0]
r 15.088782847 _6_ RTR  --- 2 cbr 556 [13a 6 7 800] ------- [1:0 6:0 30 6] [0] 3 0
r 15.088782847 _6_ AGT  --- 2 cbr 512 [13a 6 7 800] ------- [1:0 6:0 30 6] [0] 3 0
f 15.089655492 _7_ RTR  --- 11 DSR 68 [0 ffffffff 6 800] ------- [3:255 2:255 32 0] 3 [1 2] [0 2 0 0->16] [0 0 0 0->0]
r 15.090412456 _1_ RTR  --- 11 DSR 48 [0 ffffffff 4 800] ------- [3:255 2:255 32 0] 2 [1 2] [0 2 0 0->16] [0 0 0 0->0]
r 15.090412456 _3_ RTR  --- 11 DSR 48 [0 ffffffff 4 800] ------- [3:255 2:255 32 0] 2 [1 2] [0 2 0 0->16] [0 0 0 0->0]
r 15.090412456 _7_ RTR  --- 11 DSR 48 [0 ffffffff 4 800] ------- [3:255 2:255 32 0] 2 [1 2] [0 2 0 0->16] [0 0 0 0->0]
r 15.090412456 _5_ RTR  --- 11 DSR 48 [0 ffffffff 4 800] ------- [3:255 2:255 32 0] 2 [1 2] [0 2 0 0->16] [0 0 0 0->0]
r 15.090412535 _9_ RTR  --- 11 DSR 48 [0 ffffffff 4 800] ------- [3:255 2:255 32 0] 2 [1 2] [0 2 0 0->16] [0 0 0 0->0]
r 15.091463123 _4_ RTR  --- 11 DSR 68 [0 ffffffff 7 800] ------- [3:255 2:255 32 0] 3 [1 2] [0 2 0 0->16] [0 0 0 0->0]
r 15.091463123 _6_ RTR  --- 11 DSR 68 [0 ffffffff 7 800] ------- [3:255 2:255 32 0] 3 [1 2] [0 2 0 0->16] [0 0 0 0->0]
r 15.091463123 _8_ RTR  --- 11 DSR 68 [0 ffffffff 7 800] ------- [3:255 2:255 32 0] 3 [1 2] [0 2 0 0->16] [0 0 0 0->0]
f 15.091466736 _8_ RTR  --- 11 DSR 92 [0 ffffffff 7 800] ------- [3:255 2:255 32 0] 4 [1 2] [0 2 0 0->16] [0 0 0 0->0]
r 15.093119403 _5_ RTR  --- 11 DSR 92 [0 ffffffff 8 800] ------- [3:255 2:255 32 0] 4 [1 2] [0 2 0 0->16] [0 0 0 0->0]
r 15.093119403 _7_ RTR  --- 11 DSR 92 [0 ffffffff 8 800] ------- [3:255 2:255 32 0] 4 [1 2] [0 2 0 0->16] [0 0 0 0->0]
f 15.093289712 _5_ RTR  --- 11 DSR 68 [0 ffffffff 4 800] ------- [3:255 2:255 32 0] 3 [1 2] [0 2 0 0->16] [0 0 0 0->0]
r 15.094851947 _1_ RTR  --- 9 DSR 60 [13a 1 0 800] ------- [6:255 1:255 252 1] 4 [0 2] [1 2 4 1->6] [0 0 0 0->0]
f 15.096022545 _9_ RTR  --- 11 DSR 68 [0 ffffffff 4 800] ------- [3:255 2:255 32 0] 3 [1 2] [0 2 0 0->16] [0 0 0 0->0]
r 15.096457280 _3_ RTR  --- 11 DSR 48 [0 ffffffff 0 800] ------- [3:255 2:255 32 0] 2 [1 2] [0 2 0 0->16] [0 0 0 0->0]
r 15.096457280 _1_ RTR  --- 11 DSR 48 [0 ffffffff 0 800] ------- [3:255 2:255 32 0] 2 [1 2] [0 2 0 0->16] [0 0 0 0->0]
f 15.098310982 _1_ RTR  --- 11 DSR 68 [0 ffffffff 4 800] ------- [3:255 2:255 32 0] 3 [1 2] [0 2 0 0->16] [0 0 0 0->0]
r 15.102388614 _1_ RTR  --- 0 cbr 556 [13a 1 0 800] ------- [0:0 7:0 32 1] [0] 1 0
f 15.102388614 _1_ RTR  --- 0 cbr 556 [13a 1 0 800] ------- [0:0 7:0 31 4] [0] 1 0
s 15.102866740 _3_ AGT  --- 13 cbr 512 [0 0 0 0] ------- [3:0 2:0 32 0] [1] 0 0
r 15.102866740 _3_ RTR  --- 13 cbr 512 [0 0 0 0] ------- [3:0 2:0 32 0] [1] 0 0
r 15.103913280 _0_ RTR  --- 11 DSR 68 [0 ffffffff 1 800] ------- [3:255 2:255 32 0] 3 [1 2] [0 2 0 0->16] [0 0 0 0->0]
r 15.103913280 _4_ RTR  --- 11 DSR 68 [0 ffffffff 1 800] ------- [3:255 2:255 32 0] 3 [1 2] [0 2 0 0->16] [0 0 0 0->0]
r 15.103913280 _2_ RTR  --- 11 DSR 68 [0 ffffffff 1 800] ------- [3:255 2:255 32 0] 3 [1 2] [0 2 0 0->16] [0 0 0 0->0]
r 15.103913359 _9_ RTR  --- 11 DSR 68 [0 ffffffff 1 800] ------- [3:255 2:255 32 0] 3 [1 2] [0 2 0 0->16] [0 0 0 0->0]
s 15.104501188 _1_ AGT  --- 16 cbr 512 [0 0 0 0] ------- [1:0 6:0 32 0] [1] 0 0
r 15.104501188 _1_ RTR  --- 16 cbr 512 [0 0 0 0] ------- [1:0 6:0 32 0] [1] 0 0
SFESTs 15.104501188 _1_ 16 [1 -> 6] 1(1) to 4 [1 |4 7 6 ]
s 15.104501188 _1_ RTR  --- 16 cbr 556 [0 0 0 0] ------- [1:0 6:0 32 4] [1] 0 0
r 15.105023692 _5_ RTR  --- 11 DSR 68 [0 ffffffff 9 800] ------- [3:255 2:255 32 0] 3 [1 2] [0 2 0 0->16] [0 0 0 0->0]
r 15.105023692 _2_ RTR  --- 11 DSR 68 [0 ffffffff 9 800] ------- [3:255 2:255 32 0] 3 [1 2] [0 2 0 0->16] [0 0 0 0->0]
r 15.105024104 _4_ RTR  --- 11 DSR 68 [0 ffffffff 9 800] ------- [3:255 2:255 32 0] 3 [1 2] [0 2 0 0->16] [0 0 0 0->0]
r 15.105024104 _1_ RTR  --- 11 DSR 68 [0 ffffffff 9 800] ------- [3:255 2:255 32 0] 3 [1 2] [0 2 0 0->16] [0 0 0 0->0]
r 15.106294026 _9_ RTR  --- 11 DSR 68 [0 ffffffff 5 800] ------- [3:255 2:255 32 0] 3 [1 2] [0 2 0 0->16] [0 0 0 0->0]
r 15.106294359 _2_ RTR  --- 11 DSR 68 [0 ffffffff 5 800] ------- [3:255 2:255 32 0] 3 [1 2] [0 2 0 0->16] [0 0 0 0->0]
r 15.106294359 _4_ RTR  --- 11 DSR 68 [0 ffffffff 5 800] ------- [3:255 2:255 32 0] 3 [1 2] [0 2 0 0->16] [0 0 0 0->0]
r 15.106294359 _8_ RTR  --- 11 DSR 68 [0 ffffffff 5 800] ------- [3:255 2:255 32 0] 3 [1 2] [0 2 0 0->16] [0 0 0 0->0]
s 15.106634068 _2_ RTR  --- 15 DSR 60 [0 0 0 0] ------- [2:255 3:255 254 1] 4 [0 2] [1 2 4 3->2] [0 0 0 0->0]
s 15.111316078 _2_ RTR  --- 18 DSR 60 [0 0 0 0] ------- [2:255 3:255 254 5] 4 [0 2] [1 2 4 3->2] [0 0 0 0->0]
r 15.112310635 _4_ RTR  --- 0 cbr 556 [13a 4 1 800] ------- [0:0 7:0 31 4] [0] 2 0
f 15.112310635 _4_ RTR  --- 0 cbr 556 [13a 4 1 800] ------- [0:0 7:0 30 7] [0] 2 0
s 15.113904407 _0_ AGT  --- 19 cbr 512 [0 0 0 0] ------- [0:0 7:0 32 0] [1] 0 0
r 15.113904407 _0_ RTR  --- 19 cbr 512 [0 0 0 0] ------- [0:0 7:0 32 0] [1] 0 0
SFESTs 15.113904407 _0_ 19 [0 -> 7] 1(1) to 1 [0 |1 4 7 ]
s 15.113904407 _0_ RTR  --- 19 cbr 556 [0 0 0 0] ------- [0:0 7:0 32 1] [1] 0 0
s 15.114358439 _2_ RTR  --- 17 DSR 60 [0 0 0 0] ------- [2:255 3:255 254 9] 4 [0 2] [1 2 4 3->2] [0 0 0 0->0]
r 15.118537302 _4_ RTR  --- 16 cbr 556 [13a 4 1 800] ------- [1:0 6:0 32 4] [1] 1 0
f 15.118537302 _4_ RTR  --- 16 cbr 556 [13a 4 1 800] ------- [1:0 6:0 31 7] [1] 1 0
r 15.124523302 _7_ RTR  --- 0 cbr 556 [13a 7 4 800] ------- [0:0 7:0 30 7] [0] 3 0
r 15.124523302 _7_ AGT  --- 0 cbr 512 [13a 7 4 800] ------- [0:0 7:0 30 7] [0] 3 0
r 15.130834793 _1_ RTR  --- 19 cbr 556 [13a 1 0 800] ------- [0:0 7:0 32 1] [1] 1 0
f 15.130834793 _1_ RTR  --- 19 cbr 556 [13a 1 0 800] ------- [0:0 7:0 31 4] [1] 1 0
r 15.136800793 _4_ RTR  --- 19 cbr 556 [13a 4 1 800] ------- [0:0 7:0 31 4] [1] 2 0
f 15.136800793 _4_ RTR  --- 19 cbr 556 [13a 4 1 800] ------- [0:0 7:0 30 7] [1] 2 0
r 15.142886793 _7_ RTR  --- 16 cbr 556 [13a 7 4 800] ------- [1:0 6:0 31 7] [1] 2 0
f 15.142886793 _7_ RTR  --- 16 cbr 556 [13a 7 4 800] ------- [1:0 6:0 30 6] [1] 2 0
r 15.148792793 _6_ RTR  --- 16 cbr 556 [13a 6 7 800] ------- [1:0 6:0 30 6] [1] 3 0
r 15.148792793 _6_ AGT  --- 16 cbr 512 [13a 6 7 800] ------- [1:0 6:0 30 6] [1] 3 0
r 15.151201617 _1_ RTR  --- 15 DSR 60 [13a 1 2 800] ------- [2:255 3:255 254 1] 4 [0 2] [1 2 4 3->2] [0 0 0 0->0]
f 15.151201617 _1_ RTR  --- 15 DSR 60 [13a 1 2 800] ------- [2:255 3:255 253 4] 4 [0 2] [1 2 4 3->2] [0 0 0 0->0]
r 15.153179617 _4_ RTR  --- 15 DSR 60 [13a 4 1 800] ------- [2:255 3:255 253 4] 4 [0 2] [1 2 4 3->2] [0 0 0 0->0]
f 15.153179617 _4_ RTR  --- 15 DSR 60 [13a 4 1 800] ------- [2:255 3:255 252 3] 4 [0 2] [1 2 4 3->2] [0 0 0 0->0]
r 15.159505617 _7_ RTR  --- 19 cbr 556 [13a 7 4 800] ------- [0:0 7:0 30 7] [1] 3 0
r 15.159505617 _7_ AGT  --- 19 cbr 512 [13a 7 4 800] ------- [0:0 7:0 30 7] [1] 3 0
r 15.161724283 _3_ RTR  --- 15 DSR 60 [13a 3 4 800] ------- [2:255 3:255 252 3] 4 [0 2] [1 2 4 3->2] [0 0 0 0->0]
SFESTs 15.161724283 _3_ 4 [3 -> 2] 1(1) to 4 [3 |4 1 2 ]
SFESTs 15.161724283 _3_ 13 [3 -> 2] 1(1) to 4 [3 |4 1 2 ]
s 15.161724283 _3_ RTR  --- 4 cbr 556 [0 0 0 0] ------- [3:0 2:0 32 4] [0] 0 0
r 15.167990283 _4_ RTR  --- 4 cbr 556 [13a 4 3 800] ------- [3:0 2:0 32 4] [0] 1 0
f 15.167990283 _4_ RTR  --- 4 cbr 556 [13a 4 3 800] ------- [3:0 2:0 31 1] [0] 1 0
s 15.168218800 _3_ AGT  --- 22 cbr 512 [0 0 0 0] ------- [3:0 2:0 32 0] [2] 0 0
r 15.168218800 _3_ RTR  --- 22 cbr 512 [0 0 0 0] ------- [3:0 2:0 32 0] [2] 0 0
SFESTs 15.168218800 _3_ 22 [3 -> 2] 1(1) to 4 [3 |4 1 2 ]
s 15.168218800 _3_ RTR  --- 22 cbr 556 [0 0 0 0] ------- [3:0 2:0 32 4] [2] 0 0
r 15.174016283 _1_ RTR  --- 4 cbr 556 [13a 1 4 800] ------- [3:0 2:0 31 1] [0] 2 0
f 15.174016283 _1_ RTR  --- 4 cbr 556 [13a 1 4 800] ------- [3:0 2:0 30 2] [0] 2 0
r 15.179962283 _2_ RTR  --- 4 cbr 556 [13a 2 1 800] ------- [3:0 2:0 30 2] [0] 3 0
r 15.179962283 _2_ AGT  --- 4 cbr 512 [13a 2 1 800] ------- [3:0 2:0 30 2] [0] 3 0
r 15.181959283 _9_ RTR  --- 17 DSR 60 [13a 9 2 800] ------- [2:255 3:255 254 9] 4 [0 2] [1 2 4 3->2] [0 0 0 0->0]
f 15.181959283 _9_ RTR  --- 17 DSR 60 [13a 9 2 800] ------- [2:255 3:255 253 4] 4 [0 2] [1 2 4 3->2] [0 0 0 0->0]
s 15.183353820 _1_ AGT  --- 23 cbr 512 [0 0 0 0] ------- [1:0 6:0 32 0] [2] 0 0
r 15.183353820 _1_ RTR  --- 23 cbr 512 [0 0 0 0] ------- [1:0 6:0 32 0] [2] 0 0
SFESTs 15.183353820 _1_ 23 [1 -> 6] 1(1) to 4 [1 |4 7 6 ]
s 15.183353820 _1_ RTR  --- 23 cbr 556 [0 0 0 0] ------- [1:0 6:0 32 4] [2] 0 0
r 15.184177617 _5_ RTR  --- 18 DSR 60 [13a 5 2 800] ------- [2:255 3:255 254 5] 4 [0 2] [1 2 4 3->2] [0 0 0 0->0]
f 15.184177617 _5_ RTR  --- 18 DSR 60 [13a 5 2 800] ------- [2:255 3:255 253 4] 4 [0 2] [1 2 4 3->2] [0 0 0 0->0]
r 15.191450695 _4_ RTR  --- 23 cbr 556 [13a 4 1 800] ------- [1:0 6:0 32 4] [2] 1 0
f 15.191450695 _4_ RTR  --- 23 cbr 556 [13a 4 1 800] ------- [1:0 6:0 31 7] [2] 1 0
s 15.191724283 _3_ RTR  --- 13 cbr 556 [0 0 0 0] ------- [3:0 2:0 32 4] [1] 0 0
r 15.193429677 _4_ RTR  --- 17 DSR 60 [13a 4 9 800] ------- [2:255 3:255 253 4] 4 [0 2] [1 2 4 3->2] [0 0 0 0->0]
f 15.193429677 _4_ RTR  --- 17 DSR 60 [13a 4 9 800] ------- [2:255 3:255 252 3] 4 [0 2] [1 2 4 3->2] [0 0 0 0->0]
r 15.199446306 _4_ RTR  --- 22 cbr 556 [13a 4 3 800] ------- [3:0 2:0 32 4] [2] 1 0
f 15.199446306 _4_ RTR  --- 22 cbr 556 [13a 4 3 800] ------- [3:0 2:0 31 1] [2] 1 0
r 15.205392972 _4_ RTR  --- 13 cbr 556 [13a 4 3 800] ------- [3:0 2:0 32 4] [1] 1 0
f 15.205392972 _4_ RTR  --- 13 cbr 556 [13a 4 3 800] ------- [3:0 2:0 31 1] [1] 1 0
s 15.205768341 _0_ AGT  --- 24 cbr 512 [0 0 0 0] ------- [0:0 7:0 32 0] [2] 0 0
r 15.205768341 _0_ RTR  --- 24 cbr 512 [0 0 0 0] ------- [0:0 7:0 32 0] [2] 0 0
SFESTs 15.205768341 _0_ 24 [0 -> 7] 1(1) to 1 [0 |1 4 7 ]
s 15.205768341 _0_ RTR  --- 24 cbr 556 [0 0 0 0] ------- [0:0 7:0 32 1] [2] 0 0
r 15.211678972 _7_ RTR  --- 23 cbr 556 [13a 7 4 800] ------- [1:0 6:0 31 7] [2] 2 0
f 15.211678972 _7_ RTR  --- 23 cbr 556 [13a 7 4 800] ------- [1:0 6:0 30 6] [2] 2 0
r 15.213677639 _3_ RTR  --- 17 DSR 60 [13a 3 4 800] ------- [2:255 3:255 252 3] 4 [0 2] [1 2 4 3->2] [0 0 0 0->0]
r 15.219864306 _1_ RTR  --- 22 cbr 556 [13a 1 4 800] ------- [3:0 2:0 31 1] [2] 2 0
f 15.219864306 _1_ RTR  --- 22 cbr 556 [13a 1 4 800] ------- [3:0 2:0 30 2] [2] 2 0
r 15.225870306 _2_ RTR  --- 22 cbr 556 [13a 2 1 800] ------- [3:0 2:0 30 2] [2] 3 0
r 15.225870306 _2_ AGT  --- 22 cbr 512 [13a 2 1 800] ------- [3:0 2:0 30 2] [2] 3 0
r 15.232221639 _1_ RTR  --- 24 cbr 556 [13a 1 0 800] ------- [0:0 7:0 32 1] [2] 1 0
f 15.232221639 _1_ RTR  --- 24 cbr 556 [13a 1 0 800] ------- [0:0 7:0 31 4] [2] 1 0
r 15.238407639 _4_ RTR  --- 24 cbr 556 [13a 4 1 800] ------- [0:0 7:0 31 4] [2] 2 0
f 15.238407639 _4_ RTR  --- 24 cbr 556 [13a 4 1 800] ------- [0:0 7:0 30 7] [2] 2 0
r 15.244473639 _1_ RTR  --- 13 cbr 556 [13a 1 4 800] ------- [3:0 2:0 31 1] [1] 2 0
f 15.244473639 _1_ RTR  --- 13 cbr 556 [13a 1 4 800] ------- [3:0 2:0 30 2] [1] 2 0
r 15.250559639 _2_ RTR  --- 13 cbr 556 [13a 2 1 800] ------- [3:0 2:0 30 2] [1] 3 0
r 15.250559639 _2_ AGT  --- 13 cbr 512 [13a 2 1 800] ------- [3:0 2:0 30 2] [1] 3 0
r 15.252887915 _4_ RTR  --- 18 DSR 60 [13a 4 5 800] ------- [2:255 3:255 253 4] 4 [0 2] [1 2 4 3->2] [0 0 0 0->0]
f 15.252887915 _4_ RTR  --- 18 DSR 60 [13a 4 5 800] ------- [2:255 3:255 252 3] 4 [0 2] [1 2 4 3->2] [0 0 0 0->0]
s 15.257823318 _1_ AGT  --- 25 cbr 512 [0 0 0 0] ------- [1:0 6:0 32 0] [3] 0 0
r 15.257823318 _1_ RTR  --- 25 cbr 512 [0 0 0 0] ------- [1:0 6:0 32 0] [3] 0 0
SFs 15.257823318 _1_ 25 [1 -> 6] 1(0) to 4 
s 15.257823318 _1_ RTR  --- 25 cbr 532 [0 0 0 0] ------- [1:0 6:0 32 4] [3] 0 0
r 15.258853915 _7_ RTR  --- 24 cbr 556 [13a 7 4 800] ------- [0:0 7:0 30 7] [2] 3 0
r 15.258853915 _7_ AGT  --- 24 cbr 512 [13a 7 4 800] ------- [0:0 7:0 30 7] [2] 3 0
r 15.260832582 _3_ RTR  --- 18 DSR 60 [13a 3 4 800] ------- [2:255 3:255 252 3] 4 [0 2] [1 2 4 3->2] [0 0 0 0->0]
r 15.267203525 _6_ RTR  --- 23 cbr 556 [13a 6 7 800] ------- [1:0 6:0 30 6] [2] 3 0
r 15.267203525 _6_ AGT  --- 23 cbr 512 [13a 6 7 800] ------- [1:0 6:0 30 6] [2] 3 0
r 15.273563015 _4_ RTR  --- 25 cbr 532 [13a 4 1 800] ------- [1:0 6:0 32 4] [3] 1 0
SFf 15.273563015 _4_ 25 [1 -> 6] 1 to 7
f 15.273563015 _4_ RTR  --- 25 cbr 532 [13a 4 1 800] ------- [1:0 6:0 31 7] [3] 1 0
r 15.279297015 _7_ RTR  --- 25 cbr 532 [13a 7 4 800] ------- [1:0 6:0 31 7] [3] 2 0
SFf 15.279297015 _7_ 25 [1 -> 6] 1 to 6
f 15.279297015 _7_ RTR  --- 25 cbr 532 [13a 7 4 800] ------- [1:0 6:0 30 6] [3] 2 0
r 15.285471015 _6_ RTR  --- 25 cbr 532 [13a 6 7 800] ------- [1:0 6:0 30 6] [3] 3 0
r 15.285471015 _6_ AGT  --- 25 cbr 512 [13a 6 7 800] ------- [1:0 6:0 30 6] [3] 3 0
s 15.286939774 _3_ AGT  --- 26 cbr 512 [0 0 0 0] ------- [3:0 2:0 32 0] [3] 0 0
r 15.286939774 _3_ RTR  --- 26 cbr 512 [0 0 0 0] ------- [3:0 2:0 32 0] [3] 0 0
SFs 15.286939774 _3_ 26 [3 -> 2] 1(0) to 4 
s 15.286939774 _3_ RTR  --- 26 cbr 532 [0 0 0 0] ------- [3:0 2:0 32 4] [3] 0 0
r 15.292829774 _4_ RTR  --- 26 cbr 532 [13a 4 3 800] ------- [3:0 2:0 32 4] [3] 1 0
SFf 15.292829774 _4_ 26 [3 -> 2] 1 to 1
f 15.292829774 _4_ RTR  --- 26 cbr 532 [13a 4 3 800] ------- [3:0 2:0 31 1] [3] 1 0
r 15.298663774 _1_ RTR  --- 26 cbr 532 [13a 1 4 800] ------- [3:0 2:0 31 1] [3] 2 0
SFf 15.298663774 _1_ 26 [3 -> 2] 1 to 2
f 15.298663774 _1_ RTR  --- 26 cbr 532 [13a 1 4 800] ------- [3:0 2:0 30 2] [3] 2 0
r 15.304397774 _2_ RTR  --- 26 cbr 532 [13a 2 1 800] ------- [3:0 2:0 30 2] [3] 3 0
r 15.304397774 _2_ AGT  --- 26 cbr 512 [13a 2 1 800] ------- [3:0 2:0 30 2] [3] 3 0
s 15.310985671 _0_ AGT  --- 27 cbr 512 [0 0 0 0] ------- [0:0 7:0 32 0] [3] 0 0
r 15.310985671 _0_ RTR  --- 27 cbr 512 [0 0 0 0] ------- [0:0 7:0 32 0] [3] 0 0
SFs 15.310985671 _0_ 27 [0 -> 7] 1(0) to 1 
s 15.310985671 _0_ RTR  --- 27 cbr 532 [0 0 0 0] ------- [0:0 7:0 32 1] [3] 0 0
r 15.316555671 _1_ RTR  --- 27 cbr 532 [13a 1 0 800] ------- [0:0 7:0 32 1] [3] 1 0
SFf 15.316555671 _1_ 27 [0 -> 7] 1 to 4
f 15.316555671 _1_ RTR  --- 27 cbr 532 [13a 1 0 800] ------- [0:0 7:0 31 4] [3] 1 0
r 15.322649671 _4_ RTR  --- 27 cbr 532 [13a 4 1 800] ------- [0:0 7:0 31 4] [3] 2 0
SFf 15.322649671 _4_ 27 [0 -> 7] 1 to 7
f 15.322649671 _4_ RTR  --- 27 cbr 532 [13a 4 1 800] ------- [0:0 7:0 30 7] [3] 2 0
r 15.328503671 _7_ RTR  --- 27 cbr 532 [13a 7 4 800] ------- [0:0 7:0 30 7] [3] 3 0
r 15.328503671 _7_ AGT  --- 27 cbr 512 [13a 7 4 800] ------- [0:0 7:0 30 7] [3] 3 0
s 15.335113133 _1_ AGT  --- 28 cbr 512 [0 0 0 0] ------- [1:0 6:0 32 0] [4] 0 0
r 15.335113133 _1_ RTR  --- 28 cbr 512 [0 0 0 0] ------- [1:0 6:0 32 0] [4] 0 0
SFs 15.335113133 _1_ 28 [1 -> 6] 1(0) to 4 
s 15.335113133 _1_ RTR  --- 28 cbr 532 [0 0 0 0] ------- [1:0 6:0 32 4] [4] 0 0
r 15.341043133 _4_ RTR  --- 28 cbr 532 [13a 4 1 800] ------- [1:0 6:0 32 4] [4] 1 0
SFf 15.341043133 _4_ 28 [1 -> 6] 1 to 7
f 15.341043133 _4_ RTR  --- 28 cbr 532 [13a 4 1 800] ------- [1:0 6:0 31 7] [4] 1 0
r 15.346957133 _7_ RTR  --- 28 cbr 532 [13a 7 4 800] ------- [1:0 6:0 31 7] [4] 2 0
SFf 15.346957133 _7_ 28 [1 -> 6] 1 to 6
f 15.346957133 _7_ RTR  --- 28 cbr 532 [13a 7 4 800] ------- [1:0 6:0 30 6] [4] 2 0
s 15.347866692 _3_ AGT  --- 29 cbr 512 [0 0 0 0] ------- [3:0 2:0 32 0] [4] 0 0
r 15.347866692 _3_ RTR  --- 29 cbr 512 [0 0 0 0] ------- [3:0 2:0 32 0] [4] 0 0
SFs 15.347866692 _3_ 29 [3 -> 2] 1(0) to 4 
s 15.347866692 _3_ RTR  --- 29 cbr 532 [0 0 0 0] ------- [3:0 2:0 32 4] [4] 0 0
r 15.352691133 _6_ RTR  --- 28 cbr 532 [13a 6 7 800] ------- [1:0 6:0 30 6] [4] 3 0
r 15.352691133 _6_ AGT  --- 28 cbr 512 [13a 6 7 800] ------- [1:0 6:0 30 6] [4] 3 0
r 15.358835410 _4_ RTR  --- 29 cbr 532 [13a 4 3 800] ------- [3:0 2:0 32 4] [4] 1 0
SFf 15.358835410 _4_ 29 [3 -> 2] 1 to 1
f 15.358835410 _4_ RTR  --- 29 cbr 532 [13a 4 3 800] ------- [3:0 2:0 31 1] [4] 1 0
r 15.365029410 _1_ RTR  --- 29 cbr 532 [13a 1 4 800] ------- [3:0 2:0 31 1] [4] 2 0
SFf 15.365029410 _1_ 29 [3 -> 2] 1 to 2
f 15.365029410 _1_ RTR  --- 29 cbr 532 [13a 1 4 800] ------- [3:0 2:0 30 2] [4] 2 0
r 15.370743410 _2_ RTR  --- 29 cbr 532 [13a 2 1 800] ------- [3:0 2:0 30 2] [4] 3 0
r 15.370743410 _2_ AGT  --- 29 cbr 512 [13a 2 1 800] ------- [3:0 2:0 30 2] [4] 3 0
s 15.397243718 _1_ AGT  --- 30 cbr 512 [0 0 0 0] ------- [1:0 6:0 32 0] [5] 0 0
r 15.397243718 _1_ RTR  --- 30 cbr 512 [0 0 0 0] ------- [1:0 6:0 32 0] [5] 0 0
SFs 15.397243718 _1_ 30 [1 -> 6] 1(0) to 4 
s 15.397243718 _1_ RTR  --- 30 cbr 532 [0 0 0 0] ------- [1:0 6:0 32 4] [5] 0 0
r 15.402713718 _4_ RTR  --- 30 cbr 532 [13a 4 1 800] ------- [1:0 6:0 32 4] [5] 1 0
SFf 15.402713718 _4_ 30 [1 -> 6] 1 to 7
f 15.402713718 _4_ RTR  --- 30 cbr 532 [13a 4 1 800] ------- [1:0 6:0 31 7] [5] 1 0
s 15.406693217 _3_ AGT  --- 31 cbr 512 [0 0 0 0] ------- [3:0 2:0 32 0] [5] 0 0
r 15.406693217 _3_ RTR  --- 31 cbr 512 [0 0 0 0] ------- [3:0 2:0 32 0] [5] 0 0
SFs 15.406693217 _3_ 31 [3 -> 2] 1(0) to 4 
s 15.406693217 _3_ RTR  --- 31 cbr 532 [0 0 0 0] ------- [3:0 2:0 32 4] [5] 0 0
r 15.408487718 _7_ RTR  --- 30 cbr 532 [13a 7 4 800] ------- [1:0 6:0 31 7] [5] 2 0
SFf 15.408487718 _7_ 30 [1 -> 6] 1 to 6
f 15.408487718 _7_ RTR  --- 30 cbr 532 [13a 7 4 800] ------- [1:0 6:0 30 6] [5] 2 0
r 15.414461718 _6_ RTR  --- 30 cbr 532 [13a 6 7 800] ------- [1:0 6:0 30 6] [5] 3 0
r 15.414461718 _6_ AGT  --- 30 cbr 512 [13a 6 7 800] ------- [1:0 6:0 30 6] [5] 3 0
s 15.419501122 _0_ AGT  --- 32 cbr 512 [0 0 0 0] ------- [0:0 7:0 32 0] [4] 0 0
r 15.419501122 _0_ RTR  --- 32 cbr 512 [0 0 0 0] ------- [0:0 7:0 32 0] [4] 0 0
SFs 15.419501122 _0_ 32 [0 -> 7] 1(0) to 1 
s 15.419501122 _0_ RTR  --- 32 cbr 532 [0 0 0 0] ------- [0:0 7:0 32 1] [4] 0 0
r 15.420265994 _4_ RTR  --- 31 cbr 532 [13a 4 3 800] ------- [3:0 2:0 32 4] [5] 1 0
SFf 15.420265994 _4_ 31 [3 -> 2] 1 to 1
f 15.420265994 _4_ RTR  --- 31 cbr 532 [13a 4 3 800] ------- [3:0 2:0 31 1] [5] 1 0
r 15.426344937 _1_ RTR  --- 32 cbr 532 [13a 1 0 800] ------- [0:0 7:0 32 1] [4] 1 0
SFf 15.426344937 _1_ 32 [0 -> 7] 1 to 4
f 15.426344937 _1_ RTR  --- 32 cbr 532 [13a 1 0 800] ------- [0:0 7:0 31 4] [4] 1 0
r 15.432098937 _4_ RTR  --- 32 cbr 532 [13a 4 1 800] ------- [0:0 7:0 31 4] [4] 2 0
SFf 15.432098937 _4_ 32 [0 -> 7] 1 to 7
f 15.432098937 _4_ RTR  --- 32 cbr 532 [13a 4 1 800] ------- [0:0 7:0 30 7] [4] 2 0
r 15.437852937 _1_ RTR  --- 31 cbr 532 [13a 1 4 800] ------- [3:0 2:0 31 1] [5] 2 0
SFf 15.437852937 _1_ 31 [3 -> 2] 1 to 2
f 15.437852937 _1_ RTR  --- 31 cbr 532 [13a 1 4 800] ------- [3:0 2:0 30 2] [5] 2 0
r 15.444007604 _7_ RTR  --- 32 cbr 532 [13a 7 4 800] ------- [0:0 7:0 30 7] [4] 3 0
r 15.444007604 _7_ AGT  --- 32 cbr 512 [13a 7 4 800] ------- [0:0 7:0 30 7] [4] 3 0
r 15.450126937 _2_ RTR  --- 31 cbr 532 [13a 2 1 800] ------- [3:0 2:0 30 2] [5] 3 0
r 15.450126937 _2_ AGT  --- 31 cbr 512 [13a 2 1 800] ------- [3:0 2:0 30 2] [5] 3 0
s 15.485806306 _3_ AGT  --- 33 cbr 512 [0 0 0 0] ------- [3:0 2:0 32 0] [6] 0 0
r 15.485806306 _3_ RTR  --- 33 cbr 512 [0 0 0 0] ------- [3:0 2:0 32 0] [6] 0 0
SFs 15.485806306 _3_ 33 [3 -> 2] 1(0) to 4 
s 15.485806306 _3_ RTR  --- 33 cbr 532 [0 0 0 0] ------- [3:0 2:0 32 4] [6] 0 0
s 15.490764169 _0_ AGT  --- 34 cbr 512 [0 0 0 0] ------- [0:0 7:0 32 0] [5] 0 0
r 15.490764169 _0_ RTR  --- 34 cbr 512 [0 0 0 0] ------- [0:0 7:0 32 0] [5] 0 0
SFs 15.490764169 _0_ 34 [0 -> 7] 1(0) to 1 
s 15.490764169 _0_ RTR  --- 34 cbr 532 [0 0 0 0] ------- [0:0 7:0 32 1] [5] 0 0
r 15.491856306 _4_ RTR  --- 33 cbr 532 [13a 4 3 800] ------- [3:0 2:0 32 4] [6] 1 0
SFf 15.491856306 _4_ 33 [3 -> 2] 1 to 1
f 15.491856306 _4_ RTR  --- 33 cbr 532 [13a 4 3 800] ------- [3:0 2:0 31 1] [6] 1 0
r 15.497670306 _1_ RTR  --- 33 cbr 532 [13a 1 4 800] ------- [3:0 2:0 31 1] [6] 2 0
SFf 15.497670306 _1_ 33 [3 -> 2] 1 to 2
f 15.497670306 _1_ RTR  --- 33 cbr 532 [13a 1 4 800] ------- [3:0 2:0 30 2] [6] 2 0
r 15.503564306 _2_ RTR  --- 33 cbr 532 [13a 2 1 800] ------- [3:0 2:0 30 2] [6] 3 0
r 15.503564306 _2_ AGT  --- 33 cbr 512 [13a 2 1 800] ------- [3:0 2:0 30 2] [6] 3 0
r 15.509663639 _1_ RTR  --- 34 cbr 532 [13a 1 0 800] ------- [0:0 7:0 32 1] [5] 1 0
SFf 15.509663639 _1_ 34 [0 -> 7] 1 to 4
f 15.509663639 _1_ RTR  --- 34 cbr 532 [13a 1 0 800] ------- [0:0 7:0 31 4] [5] 1 0
r 15.515897639 _4_ RTR  --- 34 cbr 532 [13a 4 1 800] ------- [0:0 7:0 31 4] [5] 2 0
SFf 15.515897639 _4_ 34 [0 -> 7] 1 to 7
f 15.515897639 _4_ RTR  --- 34 cbr 532 [13a 4 1 800] ------- [0:0 7:0 30 7] [5] 2 0
r 15.522151639 _7_ RTR  --- 34 cbr 532 [13a 7 4 800] ------- [0:0 7:0 30 7] [5] 3 0
r 15.522151639 _7_ AGT  --- 34 cbr 512 [13a 7 4 800] ------- [0:0 7:0 30 7] [5] 3 0