Sconfig 0.00000 tap: on snoop: rts? on errs? on
Sconfig 0.00000 salvage: on !bd replies? on
Sconfig 0.00000 grat error: on grat reply: on
Sconfig 0.00000 $reply for props: on ring 0 search: on
Sconfig 0.00000 using MOBICACHE
s 15.000000000 _0_ AGT  --- 0 cbr 512 [0 0 0 0] ------- [0:0 18:0 32 0] [0] 0 0
r 15.000000000 _0_ RTR  --- 0 cbr 512 [0 0 0 0] ------- [0:0 18:0 32 0] [0] 0 0
s 15.000000000 _3_ AGT  --- 2 cbr 512 [0 0 0 0] ------- [3:0 18:1 32 0] [0] 0 0
r 15.000000000 _3_ RTR  --- 2 cbr 512 [0 0 0 0] ------- [3:0 18:1 32 0] [0] 0 0
s 15.000000000 _7_ AGT  --- 4 cbr 512 [0 0 0 0] ------- [7:0 11:0 32 0] [0] 0 0
r 15.000000000 _7_ RTR  --- 4 cbr 512 [0 0 0 0] ------- [7:0 11:0 32 0] [0] 0 0
s 15.002906133 _7_ RTR  --- 5 DSR 32 [0 0 0 0] ------- [7:255 11:255 32 0] 1 [1 1] [0 1 0 0->0] [0 0 0 0->0]
r 15.003858467 _4_ RTR  --- 5 DSR 32 [0 ffffffff 7 800] ------- [7:255 11:255 32 0] 1 [1 1] [0 1 0 0->0] [0 0 0 0->0]
r 15.003858467 _10_ RTR  --- 5 DSR 32 [0 ffffffff 7 800] ------- [7:255 11:255 32 0] 1 [1 1] [0 1 0 0->0] [0 0 0 0->0]
r 15.003858605 _23_ RTR  --- 5 DSR 32 [0 ffffffff 7 800] ------- [7:255 11:255 32 0] 1 [1 1] [0 1 0 0->0] [0 0 0 0->0]
r 15.003858605 _22_ RTR  --- 5 DSR 32 [0 ffffffff 7 800] ------- [7:255 11:255 32 0] 1 [1 1] [0 1 0 0->0] [0 0 0 0->0]
r 15.003858800 _1_ RTR  --- 5 DSR 32 [0 ffffffff 7 800] ------- [7:255 11:255 32 0] 1 [1 1] [0 1 0 0->0] [0 0 0 0->0]
r 15.003858800 _6_ RTR  --- 5 DSR 32 [0 ffffffff 7 800] ------- [7:255 11:255 32 0] 1 [1 1] [0 1 0 0->0] [0 0 0 0->0]
r 15.003858800 _13_ RTR  --- 5 DSR 32 [0 ffffffff 7 800] ------- [7:255 11:255 32 0] 1 [1 1] [0 1 0 0->0] [0 0 0 0->0]
r 15.003858800 _8_ RTR  --- 5 DSR 32 [0 ffffffff 7 800] ------- [7:255 11:255 32 0] 1 [1 1] [0 1 0 0->0] [0 0 0 0->0]
r 15.003858879 _21_ RTR  --- 5 DSR 32 [0 ffffffff 7 800] ------- [7:255 11:255 32 0] 1 [1 1] [0 1 0 0->0] [0 0 0 0->0]
r 15.003858879 _9_ RTR  --- 5 DSR 32 [0 ffffffff 7 800] ------- [7:255 11:255 32 0] 1 [1 1] [0 1 0 0->0] [0 0 0 0->0]
r 15.003858879 _3_ RTR  --- 5 DSR 32 [0 ffffffff 7 800] ------- [7:255 11:255 32 0] 1 [1 1] [0 1 0 0->0] [0 0 0 0->0]
r 15.003858879 _20_ RTR  --- 5 DSR 32 [0 ffffffff 7 800] ------- [7:255 11:255 32 0] 1 [1 1] [0 1 0 0->0] [0 0 0 0->0]
r 15.003858879 _5_ RTR  --- 5 DSR 32 [0 ffffffff 7 800] ------- [7:255 11:255 32 0] 1 [1 1] [0 1 0 0->0] [0 0 0 0->0]
r 15.003858879 _11_ RTR  --- 5 DSR 32 [0 ffffffff 7 800] ------- [7:255 11:255 32 0] 1 [1 1] [0 1 0 0->0] [0 0 0 0->0]
s 15.005072254 _11_ RTR  --- 6 DSR 44 [0 0 0 0] ------- [11:255 7:255 254 7] 2 [0 1] [1 1 2 7->11] [0 0 0 0->0]
s 15.005505108 _0_ RTR  --- 1 DSR 32 [0 0 0 0] ------- [0:255 18:255 32 0] 1 [1 1] [0 1 0 0->0] [0 0 0 0->0]
r 15.007198490 _7_ RTR  --- 6 DSR 44 [13a 7 b 800] ------- [11:255 7:255 254 7] 2 [0 1] [1 1 2 7->11] [0 0 0 0->0]
SFESTs 15.007198490 _7_ 4 [7 -> 11] 1(1) to 11 [7 |11 ]
s 15.007198490 _7_ RTR  --- 4 cbr 548 [0 0 0 0] ------- [7:0 11:0 32 11] [0] 0 0
s 15.008299048 _3_ RTR  --- 3 DSR 32 [0 0 0 0] ------- [3:255 18:255 32 0] 1 [1 1] [0 1 0 0->0] [0 0 0 0->0]
r 15.008699767 _3_ RTR  --- 1 DSR 32 [0 ffffffff 0 800] ------- [0:255 18:255 32 0] 1 [1 1] [0 1 0 0->0] [0 0 0 0->0]
r 15.008700100 _6_ RTR  --- 1 DSR 32 [0 ffffffff 0 800] ------- [0:255 18:255 32 0] 1 [1 1] [0 1 0 0->0] [0 0 0 0->0]
r 15.008700100 _1_ RTR  --- 1 DSR 32 [0 ffffffff 0 800] ------- [0:255 18:255 32 0] 1 [1 1] [0 1 0 0->0] [0 0 0 0->0]
r 15.008700179 _4_ RTR  --- 1 DSR 32 [0 ffffffff 0 800] ------- [0:255 18:255 32 0] 1 [1 1] [0 1 0 0->0] [0 0 0 0->0]
r 15.009782100 _0_ RTR  --- 3 DSR 32 [0 ffffffff 3 800] ------- [3:255 18:255 32 0] 1 [1 1] [0 1 0 0->0] [0 0 0 0->0]
r 15.009782100 _6_ RTR  --- 3 DSR 32 [0 ffffffff 3 800] ------- [3:255 18:255 32 0] 1 [1 1] [0 1 0 0->0] [0 0 0 0->0]
r 15.009782433 _9_ RTR  --- 3 DSR 32 [0 ffffffff 3 800] ------- [3:255 18:255 32 0] 1 [1 1] [0 1 0 0->0] [0 0 0 0->0]
r 15.009782433 _4_ RTR  --- 3 DSR 32 [0 ffffffff 3 800] ------- [3:255 18:255 32 0] 1 [1 1] [0 1 0 0->0] [0 0 0 0->0]
r 15.009782512 _23_ RTR  --- 3 DSR 32 [0 ffffffff 3 800] ------- [3:255 18:255 32 0] 1 [1 1] [0 1 0 0->0] [0 0 0 0->0]
r 15.009782512 _1_ RTR  --- 3 DSR 32 [0 ffffffff 3 800] ------- [3:255 18:255 32 0] 1 [1 1] [0 1 0 0->0] [0 0 0 0->0]
r 15.009782512 _7_ RTR  --- 3 DSR 32 [0 ffffffff 3 800] ------- [3:255 18:255 32 0] 1 [1 1] [0 1 0 0->0] [0 0 0 0->0]
r 15.015450748 _11_ RTR  --- 4 cbr 548 [13a b 7 800] ------- [7:0 11:0 32 11] [0] 1 0
r 15.015450748 _11_ AGT  --- 4 cbr 512 [13a b 7 800] ------- [7:0 11:0 32 11] [0] 1 0
s 15.053587764 _7_ AGT  --- 10 cbr 512 [0 0 0 0] ------- [7:0 11:0 32 0] [1] 0 0
r 15.053587764 _7_ RTR  --- 10 cbr 512 [0 0 0 0] ------- [7:0 11:0 32 0] [1] 0 0
SFESTs 15.053587764 _7_ 10 [7 -> 11] 1(1) to 11 [7 |11 ]
s 15.053587764 _7_ RTR  --- 10 cbr 548 [0 0 0 0] ------- [7:0 11:0 32 11] [1] 0 0
s 15.056814946 _0_ RTR  --- 9 DSR 32 [0 0 0 0] ------- [0:255 18:255 32 0] 1 [1 2] [0 2 0 0->16] [0 0 0 0->0]
r 15.059566000 _11_ RTR  --- 10 cbr 548 [13a b 7 800] ------- [7:0 11:0 32 11] [1] 1 0
r 15.059566000 _11_ AGT  --- 10 cbr 512 [13a b 7 800] ------- [7:0 11:0 32 11] [1] 1 0
s 15.061016920 _3_ AGT  --- 11 cbr 512 [0 0 0 0] ------- [3:0 18:1 32 0] [1] 0 0
r 15.061016920 _3_ RTR  --- 11 cbr 512 [0 0 0 0] ------- [3:0 18:1 32 0] [1] 0 0
r 15.061568000 _3_ RTR  --- 9 DSR 32 [0 ffffffff 0 800] ------- [0:255 18:255 32 0] 1 [1 2] [0 2 0 0->16] [0 0 0 0->0]
r 15.061568333 _6_ RTR  --- 9 DSR 32 [0 ffffffff 0 800] ------- [0:255 18:255 32 0] 1 [1 2] [0 2 0 0->16] [0 0 0 0->0]
r 15.061568333 _1_ RTR  --- 9 DSR 32 [0 ffffffff 0 800] ------- [0:255 18:255 32 0] 1 [1 2] [0 2 0 0->16] [0 0 0 0->0]
r 15.061568412 _4_ RTR  --- 9 DSR 32 [0 ffffffff 0 800] ------- [0:255 18:255 32 0] 1 [1 2] [0 2 0 0->16] [0 0 0 0->0]
f 15.064108254 _4_ RTR  --- 9 DSR 48 [0 ffffffff 0 800] ------- [0:255 18:255 32 0] 2 [1 2] [0 2 0 0->16] [0 0 0 0->0]
r 15.065588587 _1_ RTR  --- 9 DSR 48 [0 ffffffff 4 800] ------- [0:255 18:255 32 0] 2 [1 2] [0 2 0 0->16] [0 0 0 0->0]
r 15.065588587 _7_ RTR  --- 9 DSR 48 [0 ffffffff 4 800] ------- [0:255 18:255 32 0] 2 [1 2] [0 2 0 0->16] [0 0 0 0->0]
r 15.065588920 _3_ RTR  --- 9 DSR 48 [0 ffffffff 4 800] ------- [0:255 18:255 32 0] 2 [1 2] [0 2 0 0->16] [0 0 0 0->0]
r 15.065588920 _10_ RTR  --- 9 DSR 48 [0 ffffffff 4 800] ------- [0:255 18:255 32 0] 2 [1 2] [0 2 0 0->16] [0 0 0 0->0]
r 15.065588920 _5_ RTR  --- 9 DSR 48 [0 ffffffff 4 800] ------- [0:255 18:255 32 0] 2 [1 2] [0 2 0 0->16] [0 0 0 0->0]
r 15.065588999 _23_ RTR  --- 9 DSR 48 [0 ffffffff 4 800] ------- [0:255 18:255 32 0] 2 [1 2] [0 2 0 0->16] [0 0 0 0->0]
r 15.065588999 _6_ RTR  --- 9 DSR 48 [0 ffffffff 4 800] ------- [0:255 18:255 32 0] 2 [1 2] [0 2 0 0->16] [0 0 0 0->0]
r 15.065588999 _0_ RTR  --- 9 DSR 48 [0 ffffffff 4 800] ------- [0:255 18:255 32 0] 2 [1 2] [0 2 0 0->16] [0 0 0 0->0]
r 15.065588999 _22_ RTR  --- 9 DSR 48 [0 ffffffff 4 800] ------- [0:255 18:255 32 0] 2 [1 2] [0 2 0 0->16] [0 0 0 0->0]
r 15.065588999 _2_ RTR  --- 9 DSR 48 [0 ffffffff 4 800] ------- [0:255 18:255 32 0] 2 [1 2] [0 2 0 0->16] [0 0 0 0->0]
r 15.065588999 _8_ RTR  --- 9 DSR 48 [0 ffffffff 4 800] ------- [0:255 18:255 32 0] 2 [1 2] [0 2 0 0->16] [0 0 0 0->0]
f 15.066479097 _8_ RTR  --- 9 DSR 68 [0 ffffffff 4 800] ------- [0:255 18:255 32 0] 3 [1 2] [0 2 0 0->16] [0 0 0 0->0]
r 15.067879430 _5_ RTR  --- 9 DSR 68 [0 ffffffff 8 800] ------- [0:255 18:255 32 0] 3 [1 2] [0 2 0 0->16] [0 0 0 0->0]
r 15.067879430 _11_ RTR  --- 9 DSR 68 [0 ffffffff 8 800] ------- [0:255 18:255 32 0] 3 [1 2] [0 2 0 0->16] [0 0 0 0->0]
r 15.067879568 _22_ RTR  --- 9 DSR 68 [0 ffffffff 8 800] ------- [0:255 18:255 32 0] 3 [1 2] [0 2 0 0->16] [0 0 0 0->0]
r 15.067879764 _2_ RTR  --- 9 DSR 68 [0 ffffffff 8 800] ------- [0:255 18:255 32 0] 3 [1 2] [0 2 0 0->16] [0 0 0 0->0]
r 15.067879764 _7_ RTR  --- 9 DSR 68 [0 ffffffff 8 800] ------- [0:255 18:255 32 0] 3 [1 2] [0 2 0 0->16] [0 0 0 0->0]
r 15.067879764 _14_ RTR  --- 9 DSR 68 [0 ffffffff 8 800] ------- [0:255 18:255 32 0] 3 [1 2] [0 2 0 0->16] [0 0 0 0->0]
r 15.067879842 _20_ RTR  --- 9 DSR 68 [0 ffffffff 8 800] ------- [0:255 18:255 32 0] 3 [1 2] [0 2 0 0->16] [0 0 0 0->0]
r 15.067879842 _10_ RTR  --- 9 DSR 68 [0 ffffffff 8 800] ------- [0:255 18:255 32 0] 3 [1 2] [0 2 0 0->16] [0 0 0 0->0]
r 15.067879842 _4_ RTR  --- 9 DSR 68 [0 ffffffff 8 800] ------- [0:255 18:255 32 0] 3 [1 2] [0 2 0 0->16] [0 0 0 0->0]
f 15.068354916 _1_ RTR  --- 9 DSR 48 [0 ffffffff 0 800] ------- [0:255 18:255 32 0] 2 [1 2] [0 2 0 0->16] [0 0 0 0->0]
f 15.068523143 _10_ RTR  --- 9 DSR 68 [0 ffffffff 4 800] ------- [0:255 18:255 32 0] 3 [1 2] [0 2 0 0->16] [0 0 0 0->0]
s 15.068907323 _3_ RTR  --- 12 DSR 32 [0 0 0 0] ------- [3:255 18:255 32 0] 1 [1 2] [0 2 0 0->16] [0 0 0 0->0]
r 15.069923476 _7_ RTR  --- 9 DSR 68 [0 ffffffff a 800] ------- [0:255 18:255 32 0] 3 [1 2] [0 2 0 0->16] [0 0 0 0->0]
r 15.069923476 _23_ RTR  --- 9 DSR 68 [0 ffffffff a 800] ------- [0:255 18:255 32 0] 3 [1 2] [0 2 0 0->16] [0 0 0 0->0]
r 15.069923476 _13_ RTR  --- 9 DSR 68 [0 ffffffff a 800] ------- [0:255 18:255 32 0] 3 [1 2] [0 2 0 0->16] [0 0 0 0->0]
r 15.069923476 _22_ RTR  --- 9 DSR 68 [0 ffffffff a 800] ------- [0:255 18:255 32 0] 3 [1 2] [0 2 0 0->16] [0 0 0 0->0]
r 15.069923614 _21_ RTR  --- 9 DSR 68 [0 ffffffff a 800] ------- [0:255 18:255 32 0] 3 [1 2] [0 2 0 0->16] [0 0 0 0->0]
r 15.069923614 _20_ RTR  --- 9 DSR 68 [0 ffffffff a 800] ------- [0:255 18:255 32 0] 3 [1 2] [0 2 0 0->16] [0 0 0 0->0]
r 15.069923810 _4_ RTR  --- 9 DSR 68 [0 ffffffff a 800] ------- [0:255 18:255 32 0] 3 [1 2] [0 2 0 0->16] [0 0 0 0->0]
r 15.069923810 _9_ RTR  --- 9 DSR 68 [0 ffffffff a 800] ------- [0:255 18:255 32 0] 3 [1 2] [0 2 0 0->16] [0 0 0 0->0]
r 15.069923810 _16_ RTR  --- 9 DSR 68 [0 ffffffff a 800] ------- [0:255 18:255 32 0] 3 [1 2] [0 2 0 0->16] [0 0 0 0->0]
r 15.069923810 _11_ RTR  --- 9 DSR 68 [0 ffffffff a 800] ------- [0:255 18:255 32 0] 3 [1 2] [0 2 0 0->16] [0 0 0 0->0]
r 15.069923888 _19_ RTR  --- 9 DSR 68 [0 ffffffff a 800] ------- [0:255 18:255 32 0] 3 [1 2] [0 2 0 0->16] [0 0 0 0->0]
r 15.069923888 _12_ RTR  --- 9 DSR 68 [0 ffffffff a 800] ------- [0:255 18:255 32 0] 3 [1 2] [0 2 0 0->16] [0 0 0 0->0]
r 15.069923888 _6_ RTR  --- 9 DSR 68 [0 ffffffff a 800] ------- [0:255 18:255 32 0] 3 [1 2] [0 2 0 0->16] [0 0 0 0->0]
r 15.069923888 _18_ RTR  --- 9 DSR 68 [0 ffffffff a 800] ------- [0:255 18:255 32 0] 3 [1 2] [0 2 0 0->16] [0 0 0 0->0]
r 15.069923888 _8_ RTR  --- 9 DSR 68 [0 ffffffff a 800] ------- [0:255 18:255 32 0] 3 [1 2] [0 2 0 0->16] [0 0 0 0->0]
r 15.069923888 _14_ RTR  --- 9 DSR 68 [0 ffffffff a 800] ------- [0:255 18:255 32 0] 3 [1 2] [0 2 0 0->16] [0 0 0 0->0]
f 15.070106675 _9_ RTR  --- 9 DSR 92 [0 ffffffff a 800] ------- [0:255 18:255 32 0] 4 [1 2] [0 2 0 0->16] [0 0 0 0->0]
f 15.070127115 _21_ RTR  --- 9 DSR 92 [0 ffffffff a 800] ------- [0:255 18:255 32 0] 4 [1 2] [0 2 0 0->16] [0 0 0 0->0]
f 15.070195188 _3_ RTR  --- 9 DSR 48 [0 ffffffff 0 800] ------- [0:255 18:255 32 0] 2 [1 2] [0 2 0 0->16] [0 0 0 0->0]
f 15.070286083 _22_ RTR  --- 9 DSR 68 [0 ffffffff 4 800] ------- [0:255 18:255 32 0] 3 [1 2] [0 2 0 0->16] [0 0 0 0->0]
f 15.070293620 _7_ RTR  --- 9 DSR 68 [0 ffffffff 4 800] ------- [0:255 18:255 32 0] 3 [1 2] [0 2 0 0->16] [0 0 0 0->0]
f 15.070537862 _20_ RTR  --- 9 DSR 92 [0 ffffffff 8 800] ------- [0:255 18:255 32 0] 4 [1 2] [0 2 0 0->16] [0 0 0 0->0]
f 15.070727545 _16_ RTR  --- 9 DSR 92 [0 ffffffff a 800] ------- [0:255 18:255 32 0] 4 [1 2] [0 2 0 0->16] [0 0 0 0->0]
s 15.070991179 _18_ RTR  --- 13 DSR 60 [0 0 0 0] ------- [18:255 0:255 254 10] 4 [0 2] [1 2 4 0->18] [0 0 0 0->0]
r 15.071238476 _4_ RTR  --- 9 DSR 48 [0 ffffffff 1 800] ------- [0:255 18:255 32 0] 2 [1 2] [0 2 0 0->16] [0 0 0 0->0]
r 15.071238810 _0_ RTR  --- 9 DSR 48 [0 ffffffff 1 800] ------- [0:255 18:255 32 0] 2 [1 2] [0 2 0 0->16] [0 0 0 0->0]
r 15.071238810 _7_ RTR  --- 9 DSR 48 [0 ffffffff 1 800] ------- [0:255 18:255 32 0] 2 [1 2] [0 2 0 0->16] [0 0 0 0->0]
r 15.071238810 _2_ RTR  --- 9 DSR 48 [0 ffffffff 1 800] ------- [0:255 18:255 32 0] 2 [1 2] [0 2 0 0->16] [0 0 0 0->0]
r 15.071238888 _3_ RTR  --- 9 DSR 48 [0 ffffffff 1 800] ------- [0:255 18:255 32 0] 2 [1 2] [0 2 0 0->16] [0 0 0 0->0]
r 15.071238888 _5_ RTR  --- 9 DSR 48 [0 ffffffff 1 800] ------- [0:255 18:255 32 0] 2 [1 2] [0 2 0 0->16] [0 0 0 0->0]
f 15.071367529 _6_ RTR  --- 9 DSR 48 [0 ffffffff 0 800] ------- [0:255 18:255 32 0] 2 [1 2] [0 2 0 0->16] [0 0 0 0->0]
r 15.072369143 _4_ RTR  --- 9 DSR 68 [0 ffffffff 7 800] ------- [0:255 18:255 32 0] 3 [1 2] [0 2 0 0->16] [0 0 0 0->0]
r 15.072369143 _10_ RTR  --- 9 DSR 68 [0 ffffffff 7 800] ------- [0:255 18:255 32 0] 3 [1 2] [0 2 0 0->16] [0 0 0 0->0]
r 15.072369281 _23_ RTR  --- 9 DSR 68 [0 ffffffff 7 800] ------- [0:255 18:255 32 0] 3 [1 2] [0 2 0 0->16] [0 0 0 0->0]
r 15.072369281 _22_ RTR  --- 9 DSR 68 [0 ffffffff 7 800] ------- [0:255 18:255 32 0] 3 [1 2] [0 2 0 0->16] [0 0 0 0->0]
r 15.072369476 _1_ RTR  --- 9 DSR 68 [0 ffffffff 7 800] ------- [0:255 18:255 32 0] 3 [1 2] [0 2 0 0->16] [0 0 0 0->0]
r 15.072369476 _6_ RTR  --- 9 DSR 68 [0 ffffffff 7 800] ------- [0:255 18:255 32 0] 3 [1 2] [0 2 0 0->16] [0 0 0 0->0]
r 15.072369476 _13_ RTR  --- 9 DSR 68 [0 ffffffff 7 800] ------- [0:255 18:255 32 0] 3 [1 2] [0 2 0 0->16] [0 0 0 0->0]
r 15.072369476 _8_ RTR  --- 9 DSR 68 [0 ffffffff 7 800] ------- [0:255 18:255 32 0] 3 [1 2] [0 2 0 0->16] [0 0 0 0->0]
r 15.072369555 _21_ RTR  --- 9 DSR 68 [0 ffffffff 7 800] ------- [0:255 18:255 32 0] 3 [1 2] [0 2 0 0->16] [0 0 0 0->0]
r 15.072369555 _9_ RTR  --- 9 DSR 68 [0 ffffffff 7 800] ------- [0:255 18:255 32 0] 3 [1 2] [0 2 0 0->16] [0 0 0 0->0]
r 15.072369555 _3_ RTR  --- 9 DSR 68 [0 ffffffff 7 800] ------- [0:255 18:255 32 0] 3 [1 2] [0 2 0 0->16] [0 0 0 0->0]
r 15.072369555 _20_ RTR  --- 9 DSR 68 [0 ffffffff 7 800] ------- [0:255 18:255 32 0] 3 [1 2] [0 2 0 0->16] [0 0 0 0->0]
r 15.072369555 _5_ RTR  --- 9 DSR 68 [0 ffffffff 7 800] ------- [0:255 18:255 32 0] 3 [1 2] [0 2 0 0->16] [0 0 0 0->0]
r 15.072369555 _11_ RTR  --- 9 DSR 68 [0 ffffffff 7 800] ------- [0:255 18:255 32 0] 3 [1 2] [0 2 0 0->16] [0 0 0 0->0]
r 15.073651888 _19_ RTR  --- 9 DSR 92 [0 ffffffff 15 800] ------- [0:255 18:255 32 0] 4 [1 2] [0 2 0 0->16] [0 0 0 0->0]
r 15.073651888 _12_ RTR  --- 9 DSR 92 [0 ffffffff 15 800] ------- [0:255 18:255 32 0] 4 [1 2] [0 2 0 0->16] [0 0 0 0->0]
r 15.073651888 _23_ RTR  --- 9 DSR 92 [0 ffffffff 15 800] ------- [0:255 18:255 32 0] 4 [1 2] [0 2 0 0->16] [0 0 0 0->0]
r 15.073651888 _13_ RTR  --- 9 DSR 92 [0 ffffffff 15 800] ------- [0:255 18:255 32 0] 4 [1 2] [0 2 0 0->16] [0 0 0 0->0]
r 15.073652026 _15_ RTR  --- 9 DSR 92 [0 ffffffff 15 800] ------- [0:255 18:255 32 0] 4 [1 2] [0 2 0 0->16] [0 0 0 0->0]
r 15.073652026 _9_ RTR  --- 9 DSR 92 [0 ffffffff 15 800] ------- [0:255 18:255 32 0] 4 [1 2] [0 2 0 0->16] [0 0 0 0->0]
r 15.073652026 _10_ RTR  --- 9 DSR 92 [0 ffffffff 15 800] ------- [0:255 18:255 32 0] 4 [1 2] [0 2 0 0->16] [0 0 0 0->0]
r 15.073652026 _16_ RTR  --- 9 DSR 92 [0 ffffffff 15 800] ------- [0:255 18:255 32 0] 4 [1 2] [0 2 0 0->16] [0 0 0 0->0]
r 15.073652222 _20_ RTR  --- 9 DSR 92 [0 ffffffff 15 800] ------- [0:255 18:255 32 0] 4 [1 2] [0 2 0 0->16] [0 0 0 0->0]
r 15.073652300 _6_ RTR  --- 9 DSR 92 [0 ffffffff 15 800] ------- [0:255 18:255 32 0] 4 [1 2] [0 2 0 0->16] [0 0 0 0->0]
r 15.073652300 _7_ RTR  --- 9 DSR 92 [0 ffffffff 15 800] ------- [0:255 18:255 32 0] 4 [1 2] [0 2 0 0->16] [0 0 0 0->0]
r 15.073652300 _18_ RTR  --- 9 DSR 92 [0 ffffffff 15 800] ------- [0:255 18:255 32 0] 4 [1 2] [0 2 0 0->16] [0 0 0 0->0]
r 15.073652300 _22_ RTR  --- 9 DSR 92 [0 ffffffff 15 800] ------- [0:255 18:255 32 0] 4 [1 2] [0 2 0 0->16] [0 0 0 0->0]
f 15.074632828 _5_ RTR  --- 9 DSR 68 [0 ffffffff 4 800] ------- [0:255 18:255 32 0] 3 [1 2] [0 2 0 0->16] [0 0 0 0->0]
r 15.074702634 _20_ RTR  --- 9 DSR 68 [0 ffffffff 16 800] ------- [0:255 18:255 32 0] 3 [1 2] [0 2 0 0->16] [0 0 0 0->0]
r 15.074702634 _10_ RTR  --- 9 DSR 68 [0 ffffffff 16 800] ------- [0:255 18:255 32 0] 3 [1 2] [0 2 0 0->16] [0 0 0 0->0]
r 15.074702634 _11_ RTR  --- 9 DSR 68 [0 ffffffff 16 800] ------- [0:255 18:255 32 0] 3 [1 2] [0 2 0 0->16] [0 0 0 0->0]
r 15.074702772 _13_ RTR  --- 9 DSR 68 [0 ffffffff 16 800] ------- [0:255 18:255 32 0] 3 [1 2] [0 2 0 0->16] [0 0 0 0->0]
r 15.074702772 _7_ RTR  --- 9 DSR 68 [0 ffffffff 16 800] ------- [0:255 18:255 32 0] 3 [1 2] [0 2 0 0->16] [0 0 0 0->0]
r 15.074702772 _8_ RTR  --- 9 DSR 68 [0 ffffffff 16 800] ------- [0:255 18:255 32 0] 3 [1 2] [0 2 0 0->16] [0 0 0 0->0]
r 15.074702772 _14_ RTR  --- 9 DSR 68 [0 ffffffff 16 800] ------- [0:255 18:255 32 0] 3 [1 2] [0 2 0 0->16] [0 0 0 0->0]
r 15.074702967 _18_ RTR  --- 9 DSR 68 [0 ffffffff 16 800] ------- [0:255 18:255 32 0] 3 [1 2] [0 2 0 0->16] [0 0 0 0->0]
r 15.074702967 _23_ RTR  --- 9 DSR 68 [0 ffffffff 16 800] ------- [0:255 18:255 32 0] 3 [1 2] [0 2 0 0->16] [0 0 0 0->0]
r 15.074703046 _16_ RTR  --- 9 DSR 68 [0 ffffffff 16 800] ------- [0:255 18:255 32 0] 3 [1 2] [0 2 0 0->16] [0 0 0 0->0]
r 15.074703046 _4_ RTR  --- 9 DSR 68 [0 ffffffff 16 800] ------- [0:255 18:255 32 0] 3 [1 2] [0 2 0 0->16] [0 0 0 0->0]
r 15.074703046 _21_ RTR  --- 9 DSR 68 [0 ffffffff 16 800] ------- [0:255 18:255 32 0] 3 [1 2] [0 2 0 0->16] [0 0 0 0->0]
r 15.074703046 _5_ RTR  --- 9 DSR 68 [0 ffffffff 16 800] ------- [0:255 18:255 32 0] 3 [1 2] [0 2 0 0->16] [0 0 0 0->0]
r 15.074703046 _17_ RTR  --- 9 DSR 68 [0 ffffffff 16 800] ------- [0:255 18:255 32 0] 3 [1 2] [0 2 0 0->16] [0 0 0 0->0]
f 15.075293097 _2_ RTR  --- 9 DSR 68 [0 ffffffff 4 800] ------- [0:255 18:255 32 0] 3 [1 2] [0 2 0 0->16] [0 0 0 0->0]
f 15.075460806 _14_ RTR  --- 9 DSR 92 [0 ffffffff 8 800] ------- [0:255 18:255 32 0] 4 [1 2] [0 2 0 0->16] [0 0 0 0->0]
f 15.075538958 _23_ RTR  --- 9 DSR 68 [0 ffffffff 4 800] ------- [0:255 18:255 32 0] 3 [1 2] [0 2 0 0->16] [0 0 0 0->0]
r 15.075965379 _13_ RTR  --- 9 DSR 92 [0 ffffffff 10 800] ------- [0:255 18:255 32 0] 4 [1 2] [0 2 0 0->16] [0 0 0 0->0]
r 15.075965379 _19_ RTR  --- 9 DSR 92 [0 ffffffff 10 800] ------- [0:255 18:255 32 0] 4 [1 2] [0 2 0 0->16] [0 0 0 0->0]
r 15.075965379 _18_ RTR  --- 9 DSR 92 [0 ffffffff 10 800] ------- [0:255 18:255 32 0] 4 [1 2] [0 2 0 0->16] [0 0 0 0->0]
r 15.075965517 _21_ RTR  --- 9 DSR 92 [0 ffffffff 10 800] ------- [0:255 18:255 32 0] 4 [1 2] [0 2 0 0->16] [0 0 0 0->0]
r 15.075965517 _20_ RTR  --- 9 DSR 92 [0 ffffffff 10 800] ------- [0:255 18:255 32 0] 4 [1 2] [0 2 0 0->16] [0 0 0 0->0]
r 15.075965712 _10_ RTR  --- 9 DSR 92 [0 ffffffff 10 800] ------- [0:255 18:255 32 0] 4 [1 2] [0 2 0 0->16] [0 0 0 0->0]
r 15.075965712 _15_ RTR  --- 9 DSR 92 [0 ffffffff 10 800] ------- [0:255 18:255 32 0] 4 [1 2] [0 2 0 0->16] [0 0 0 0->0]
r 15.075965712 _17_ RTR  --- 9 DSR 92 [0 ffffffff 10 800] ------- [0:255 18:255 32 0] 4 [1 2] [0 2 0 0->16] [0 0 0 0->0]
r 15.075965791 _23_ RTR  --- 9 DSR 92 [0 ffffffff 10 800] ------- [0:255 18:255 32 0] 4 [1 2] [0 2 0 0->16] [0 0 0 0->0]
r 15.075965791 _12_ RTR  --- 9 DSR 92 [0 ffffffff 10 800] ------- [0:255 18:255 32 0] 4 [1 2] [0 2 0 0->16] [0 0 0 0->0]
r 15.075965791 _22_ RTR  --- 9 DSR 92 [0 ffffffff 10 800] ------- [0:255 18:255 32 0] 4 [1 2] [0 2 0 0->16] [0 0 0 0->0]
r 15.075965791 _14_ RTR  --- 9 DSR 92 [0 ffffffff 10 800] ------- [0:255 18:255 32 0] 4 [1 2] [0 2 0 0->16] [0 0 0 0->0]
f 15.075968991 _11_ RTR  --- 9 DSR 92 [0 ffffffff 8 800] ------- [0:255 18:255 32 0] 4 [1 2] [0 2 0 0->16] [0 0 0 0->0]
f 15.076119215 _12_ RTR  --- 9 DSR 92 [0 ffffffff a 800] ------- [0:255 18:255 32 0] 4 [1 2] [0 2 0 0->16] [0 0 0 0->0]
s 15.076725005 _18_ RTR  --- 17 DSR 60 [0 0 0 0] ------- [18:255 0:255 254 22] 4 [0 2] [1 2 4 0->18] [0 0 0 0->0]
r 15.076976124 _21_ RTR  --- 9 DSR 68 [0 ffffffff 17 800] ------- [0:255 18:255 32 0] 3 [1 2] [0 2 0 0->16] [0 0 0 0->0]
r 15.076976124 _9_ RTR  --- 9 DSR 68 [0 ffffffff 17 800] ------- [0:255 18:255 32 0] 3 [1 2] [0 2 0 0->16] [0 0 0 0->0]
r 15.076976124 _10_ RTR  --- 9 DSR 68 [0 ffffffff 17 800] ------- [0:255 18:255 32 0] 3 [1 2] [0 2 0 0->16] [0 0 0 0->0]
r 15.076976263 _12_ RTR  --- 9 DSR 68 [0 ffffffff 17 800] ------- [0:255 18:255 32 0] 3 [1 2] [0 2 0 0->16] [0 0 0 0->0]
r 15.076976263 _6_ RTR  --- 9 DSR 68 [0 ffffffff 17 800] ------- [0:255 18:255 32 0] 3 [1 2] [0 2 0 0->16] [0 0 0 0->0]
r 15.076976263 _7_ RTR  --- 9 DSR 68 [0 ffffffff 17 800] ------- [0:255 18:255 32 0] 3 [1 2] [0 2 0 0->16] [0 0 0 0->0]
r 15.076976263 _13_ RTR  --- 9 DSR 68 [0 ffffffff 17 800] ------- [0:255 18:255 32 0] 3 [1 2] [0 2 0 0->16] [0 0 0 0->0]
r 15.076976458 _19_ RTR  --- 9 DSR 68 [0 ffffffff 17 800] ------- [0:255 18:255 32 0] 3 [1 2] [0 2 0 0->16] [0 0 0 0->0]
r 15.076976458 _22_ RTR  --- 9 DSR 68 [0 ffffffff 17 800] ------- [0:255 18:255 32 0] 3 [1 2] [0 2 0 0->16] [0 0 0 0->0]
r 15.076976537 _15_ RTR  --- 9 DSR 68 [0 ffffffff 17 800] ------- [0:255 18:255 32 0] 3 [1 2] [0 2 0 0->16] [0 0 0 0->0]
r 15.076976537 _3_ RTR  --- 9 DSR 68 [0 ffffffff 17 800] ------- [0:255 18:255 32 0] 3 [1 2] [0 2 0 0->16] [0 0 0 0->0]
r 15.076976537 _4_ RTR  --- 9 DSR 68 [0 ffffffff 17 800] ------- [0:255 18:255 32 0] 3 [1 2] [0 2 0 0->16] [0 0 0 0->0]
r 15.076976537 _16_ RTR  --- 9 DSR 68 [0 ffffffff 17 800] ------- [0:255 18:255 32 0] 3 [1 2] [0 2 0 0->16] [0 0 0 0->0]
r 15.076976537 _20_ RTR  --- 9 DSR 68 [0 ffffffff 17 800] ------- [0:255 18:255 32 0] 3 [1 2] [0 2 0 0->16] [0 0 0 0->0]
f 15.077334676 _19_ RTR  --- 9 DSR 92 [0 ffffffff a 800] ------- [0:255 18:255 32 0] 4 [1 2] [0 2 0 0->16] [0 0 0 0->0]
f 15.077517363 _15_ RTR  --- 9 DSR 120 [0 ffffffff 15 800] ------- [0:255 18:255 32 0] 5 [1 2] [0 2 0 0->16] [0 0 0 0->0]
s 15.077599483 _18_ RTR  --- 16 DSR 68 [0 0 0 0] ------- [18:255 0:255 254 21] 5 [0 2] [1 2 5 0->18] [0 0 0 0->0]
f 15.077770908 _17_ RTR  --- 9 DSR 92 [0 ffffffff 16 800] ------- [0:255 18:255 32 0] 4 [1 2] [0 2 0 0->16] [0 0 0 0->0]
r 15.078238458 _6_ RTR  --- 9 DSR 92 [0 ffffffff 9 800] ------- [0:255 18:255 32 0] 4 [1 2] [0 2 0 0->16] [0 0 0 0->0]
r 15.078238458 _12_ RTR  --- 9 DSR 92 [0 ffffffff 9 800] ------- [0:255 18:255 32 0] 4 [1 2] [0 2 0 0->16] [0 0 0 0->0]
r 15.078238458 _23_ RTR  --- 9 DSR 92 [0 ffffffff 9 800] ------- [0:255 18:255 32 0] 4 [1 2] [0 2 0 0->16] [0 0 0 0->0]
r 15.078238596 _21_ RTR  --- 9 DSR 92 [0 ffffffff 9 800] ------- [0:255 18:255 32 0] 4 [1 2] [0 2 0 0->16] [0 0 0 0->0]
r 15.078238791 _3_ RTR  --- 9 DSR 92 [0 ffffffff 9 800] ------- [0:255 18:255 32 0] 4 [1 2] [0 2 0 0->16] [0 0 0 0->0]
r 15.078238791 _15_ RTR  --- 9 DSR 92 [0 ffffffff 9 800] ------- [0:255 18:255 32 0] 4 [1 2] [0 2 0 0->16] [0 0 0 0->0]
r 15.078238791 _10_ RTR  --- 9 DSR 92 [0 ffffffff 9 800] ------- [0:255 18:255 32 0] 4 [1 2] [0 2 0 0->16] [0 0 0 0->0]
r 15.078238870 _19_ RTR  --- 9 DSR 92 [0 ffffffff 9 800] ------- [0:255 18:255 32 0] 4 [1 2] [0 2 0 0->16] [0 0 0 0->0]
r 15.078238870 _7_ RTR  --- 9 DSR 92 [0 ffffffff 9 800] ------- [0:255 18:255 32 0] 4 [1 2] [0 2 0 0->16] [0 0 0 0->0]
r 15.078238870 _13_ RTR  --- 9 DSR 92 [0 ffffffff 9 800] ------- [0:255 18:255 32 0] 4 [1 2] [0 2 0 0->16] [0 0 0 0->0]
f 15.078625036 _13_ RTR  --- 9 DSR 92 [0 ffffffff a 800] ------- [0:255 18:255 32 0] 4 [1 2] [0 2 0 0->16] [0 0 0 0->0]
r 15.079481203 _15_ RTR  --- 9 DSR 92 [0 ffffffff 13 800] ------- [0:255 18:255 32 0] 4 [1 2] [0 2 0 0->16] [0 0 0 0->0]
r 15.079481203 _21_ RTR  --- 9 DSR 92 [0 ffffffff 13 800] ------- [0:255 18:255 32 0] 4 [1 2] [0 2 0 0->16] [0 0 0 0->0]
r 15.079481203 _16_ RTR  --- 9 DSR 92 [0 ffffffff 13 800] ------- [0:255 18:255 32 0] 4 [1 2] [0 2 0 0->16] [0 0 0 0->0]
r 15.079481341 _12_ RTR  --- 9 DSR 92 [0 ffffffff 13 800] ------- [0:255 18:255 32 0] 4 [1 2] [0 2 0 0->16] [0 0 0 0->0]
r 15.079481341 _13_ RTR  --- 9 DSR 92 [0 ffffffff 13 800] ------- [0:255 18:255 32 0] 4 [1 2] [0 2 0 0->16] [0 0 0 0->0]
r 15.079481537 _23_ RTR  --- 9 DSR 92 [0 ffffffff 13 800] ------- [0:255 18:255 32 0] 4 [1 2] [0 2 0 0->16] [0 0 0 0->0]
r 15.079481537 _18_ RTR  --- 9 DSR 92 [0 ffffffff 13 800] ------- [0:255 18:255 32 0] 4 [1 2] [0 2 0 0->16] [0 0 0 0->0]
r 15.079481615 _9_ RTR  --- 9 DSR 92 [0 ffffffff 13 800] ------- [0:255 18:255 32 0] 4 [1 2] [0 2 0 0->16] [0 0 0 0->0]
r 15.079481615 _20_ RTR  --- 9 DSR 92 [0 ffffffff 13 800] ------- [0:255 18:255 32 0] 4 [1 2] [0 2 0 0->16] [0 0 0 0->0]
r 15.081187537 _12_ RTR  --- 9 DSR 120 [0 ffffffff f 800] ------- [0:255 18:255 32 0] 5 [1 2] [0 2 0 0->16] [0 0 0 0->0]
r 15.081187537 _19_ RTR  --- 9 DSR 120 [0 ffffffff f 800] ------- [0:255 18:255 32 0] 5 [1 2] [0 2 0 0->16] [0 0 0 0->0]
r 15.081187675 _21_ RTR  --- 9 DSR 120 [0 ffffffff f 800] ------- [0:255 18:255 32 0] 5 [1 2] [0 2 0 0->16] [0 0 0 0->0]
r 15.081187870 _9_ RTR  --- 9 DSR 120 [0 ffffffff f 800] ------- [0:255 18:255 32 0] 5 [1 2] [0 2 0 0->16] [0 0 0 0->0]
r 15.081187870 _16_ RTR  --- 9 DSR 120 [0 ffffffff f 800] ------- [0:255 18:255 32 0] 5 [1 2] [0 2 0 0->16] [0 0 0 0->0]
r 15.081808458 _2_ RTR  --- 9 DSR 68 [0 ffffffff 5 800] ------- [0:255 18:255 32 0] 3 [1 2] [0 2 0 0->16] [0 0 0 0->0]
r 15.081808458 _8_ RTR  --- 9 DSR 68 [0 ffffffff 5 800] ------- [0:255 18:255 32 0] 3 [1 2] [0 2 0 0->16] [0 0 0 0->0]
r 15.081808791 _4_ RTR  --- 9 DSR 68 [0 ffffffff 5 800] ------- [0:255 18:255 32 0] 3 [1 2] [0 2 0 0->16] [0 0 0 0->0]
r 15.081808870 _1_ RTR  --- 9 DSR 68 [0 ffffffff 5 800] ------- [0:255 18:255 32 0] 3 [1 2] [0 2 0 0->16] [0 0 0 0->0]
r 15.083455458 _11_ RTR  --- 9 DSR 92 [0 ffffffff e 800] ------- [0:255 18:255 32 0] 4 [1 2] [0 2 0 0->16] [0 0 0 0->0]
r 15.083455458 _20_ RTR  --- 9 DSR 92 [0 ffffffff e 800] ------- [0:255 18:255 32 0] 4 [1 2] [0 2 0 0->16] [0 0 0 0->0]
r 15.083455458 _17_ RTR  --- 9 DSR 92 [0 ffffffff e 800] ------- [0:255 18:255 32 0] 4 [1 2] [0 2 0 0->16] [0 0 0 0->0]
r 15.083455596 _22_ RTR  --- 9 DSR 92 [0 ffffffff e 800] ------- [0:255 18:255 32 0] 4 [1 2] [0 2 0 0->16] [0 0 0 0->0]
r 15.083455596 _18_ RTR  --- 9 DSR 92 [0 ffffffff e 800] ------- [0:255 18:255 32 0] 4 [1 2] [0 2 0 0->16] [0 0 0 0->0]
r 15.083455791 _8_ RTR  --- 9 DSR 92 [0 ffffffff e 800] ------- [0:255 18:255 32 0] 4 [1 2] [0 2 0 0->16] [0 0 0 0->0]
r 15.083455791 _13_ RTR  --- 9 DSR 92 [0 ffffffff e 800] ------- [0:255 18:255 32 0] 4 [1 2] [0 2 0 0->16] [0 0 0 0->0]
r 15.083455870 _16_ RTR  --- 9 DSR 92 [0 ffffffff e 800] ------- [0:255 18:255 32 0] 4 [1 2] [0 2 0 0->16] [0 0 0 0->0]
r 15.083455870 _10_ RTR  --- 9 DSR 92 [0 ffffffff e 800] ------- [0:255 18:255 32 0] 4 [1 2] [0 2 0 0->16] [0 0 0 0->0]
r 15.085319832 _10_ RTR  --- 13 DSR 60 [13a a 12 800] ------- [18:255 0:255 254 10] 4 [0 2] [1 2 4 0->18] [0 0 0 0->0]
f 15.085319832 _10_ RTR  --- 13 DSR 60 [13a a 12 800] ------- [18:255 0:255 253 4] 4 [0 2] [1 2 4 0->18] [0 0 0 0->0]
s 15.085539669 _18_ RTR  --- 18 DSR 68 [0 0 0 0] ------- [18:255 0:255 254 16] 5 [0 2] [1 2 5 0->18] [0 0 0 0->0]
s 15.085786699 _18_ RTR  --- 19 DSR 68 [0 0 0 0] ------- [18:255 0:255 254 19] 5 [0 2] [1 2 5 0->18] [0 0 0 0->0]
r 15.086876637 _18_ RTR  --- 9 DSR 92 [0 ffffffff 14 800] ------- [0:255 18:255 32 0] 4 [1 2] [0 2 0 0->16] [0 0 0 0->0]
r 15.086876637 _13_ RTR  --- 9 DSR 92 [0 ffffffff 14 800] ------- [0:255 18:255 32 0] 4 [1 2] [0 2 0 0->16] [0 0 0 0->0]
r 15.086876637 _22_ RTR  --- 9 DSR 92 [0 ffffffff 14 800] ------- [0:255 18:255 32 0] 4 [1 2] [0 2 0 0->16] [0 0 0 0->0]
r 15.086876637 _14_ RTR  --- 9 DSR 92 [0 ffffffff 14 800] ------- [0:255 18:255 32 0] 4 [1 2] [0 2 0 0->16] [0 0 0 0->0]
r 15.086876775 _16_ RTR  --- 9 DSR 92 [0 ffffffff 14 800] ------- [0:255 18:255 32 0] 4 [1 2] [0 2 0 0->16] [0 0 0 0->0]
r 15.086876775 _10_ RTR  --- 9 DSR 92 [0 ffffffff 14 800] ------- [0:255 18:255 32 0] 4 [1 2] [0 2 0 0->16] [0 0 0 0->0]
r 15.086876775 _11_ RTR  --- 9 DSR 92 [0 ffffffff 14 800] ------- [0:255 18:255 32 0] 4 [1 2] [0 2 0 0->16] [0 0 0 0->0]
r 15.086876775 _17_ RTR  --- 9 DSR 92 [0 ffffffff 14 800] ------- [0:255 18:255 32 0] 4 [1 2] [0 2 0 0->16] [0 0 0 0->0]
r 15.086876970 _21_ RTR  --- 9 DSR 92 [0 ffffffff 14 800] ------- [0:255 18:255 32 0] 4 [1 2] [0 2 0 0->16] [0 0 0 0->0]
r 15.086877049 _7_ RTR  --- 9 DSR 92 [0 ffffffff 14 800] ------- [0:255 18:255 32 0] 4 [1 2] [0 2 0 0->16] [0 0 0 0->0]
r 15.086877049 _23_ RTR  --- 9 DSR 92 [0 ffffffff 14 800] ------- [0:255 18:255 32 0] 4 [1 2] [0 2 0 0->16] [0 0 0 0->0]
r 15.086877049 _19_ RTR  --- 9 DSR 92 [0 ffffffff 14 800] ------- [0:255 18:255 32 0] 4 [1 2] [0 2 0 0->16] [0 0 0 0->0]
r 15.086877049 _8_ RTR  --- 9 DSR 92 [0 ffffffff 14 800] ------- [0:255 18:255 32 0] 4 [1 2] [0 2 0 0->16] [0 0 0 0->0]
r 15.088118970 _10_ RTR  --- 9 DSR 92 [0 ffffffff d 800] ------- [0:255 18:255 32 0] 4 [1 2] [0 2 0 0->16] [0 0 0 0->0]
r 15.088118970 _21_ RTR  --- 9 DSR 92 [0 ffffffff d 800] ------- [0:255 18:255 32 0] 4 [1 2] [0 2 0 0->16] [0 0 0 0->0]
r 15.088118970 _16_ RTR  --- 9 DSR 92 [0 ffffffff d 800] ------- [0:255 18:255 32 0] 4 [1 2] [0 2 0 0->16] [0 0 0 0->0]
r 15.088118970 _20_ RTR  --- 9 DSR 92 [0 ffffffff d 800] ------- [0:255 18:255 32 0] 4 [1 2] [0 2 0 0->16] [0 0 0 0->0]
r 15.088119108 _23_ RTR  --- 9 DSR 92 [0 ffffffff d 800] ------- [0:255 18:255 32 0] 4 [1 2] [0 2 0 0->16] [0 0 0 0->0]
r 15.088119108 _19_ RTR  --- 9 DSR 92 [0 ffffffff d 800] ------- [0:255 18:255 32 0] 4 [1 2] [0 2 0 0->16] [0 0 0 0->0]
r 15.088119108 _18_ RTR  --- 9 DSR 92 [0 ffffffff d 800] ------- [0:255 18:255 32 0] 4 [1 2] [0 2 0 0->16] [0 0 0 0->0]
r 15.088119108 _22_ RTR  --- 9 DSR 92 [0 ffffffff d 800] ------- [0:255 18:255 32 0] 4 [1 2] [0 2 0 0->16] [0 0 0 0->0]
r 15.088119303 _7_ RTR  --- 9 DSR 92 [0 ffffffff d 800] ------- [0:255 18:255 32 0] 4 [1 2] [0 2 0 0->16] [0 0 0 0->0]
r 15.088119303 _12_ RTR  --- 9 DSR 92 [0 ffffffff d 800] ------- [0:255 18:255 32 0] 4 [1 2] [0 2 0 0->16] [0 0 0 0->0]
r 15.088119303 _14_ RTR  --- 9 DSR 92 [0 ffffffff d 800] ------- [0:255 18:255 32 0] 4 [1 2] [0 2 0 0->16] [0 0 0 0->0]
r 15.088119382 _15_ RTR  --- 9 DSR 92 [0 ffffffff d 800] ------- [0:255 18:255 32 0] 4 [1 2] [0 2 0 0->16] [0 0 0 0->0]
r 15.088119382 _9_ RTR  --- 9 DSR 92 [0 ffffffff d 800] ------- [0:255 18:255 32 0] 4 [1 2] [0 2 0 0->16] [0 0 0 0->0]