n -t * -s 0  -x 100 -y 0 -Z 0 -z 30  -v circle -c black
n -t * -s 1  -x 300 -y 0 -Z 0 -z 30  -v circle -c black
n -t * -s 2  -x 500 -y 0 -Z 0 -z 30  -v circle -c black
n -t * -s 3  -x 100 -y 100 -Z 0 -z 30  -v circle -c black
n -t * -s 4  -x 300 -y 100 -Z 0 -z 30  -v circle -c black
n -t * -s 5  -x 500 -y 100 -Z 0 -z 30  -v circle -c black
n -t * -s 6  -x 100 -y 200 -Z 0 -z 30  -v circle -c black
n -t * -s 7  -x 300 -y 200 -Z 0 -z 30  -v circle -c black
n -t * -s 8  -x 500 -y 200 -Z 0 -z 30  -v circle -c black
n -t * -s 9  -x 100 -y 300 -Z 0 -z 30  -v circle -c black
n -t * -s 10  -x 300 -y 300 -Z 0 -z 30  -v circle -c black
n -t * -s 11  -x 500 -y 300 -Z 0 -z 30  -v circle -c black
n -t * -s 12  -x 100 -y 400 -Z 0 -z 30  -v circle -c black
n -t * -s 13  -x 300 -y 400 -Z 0 -z 30  -v circle -c black
n -t * -s 14  -x 500 -y 400 -Z 0 -z 30  -v circle -c black
n -t * -s 15  -x 100 -y 500 -Z 0 -z 30  -v circle -c black
n -t * -s 16  -x 300 -y 500 -Z 0 -z 30  -v circle -c black
n -t * -s 17  -x 500 -y 500 -Z 0 -z 30  -v circle -c black
n -t * -s 18  -x 400 -y 500 -Z 0 -z 30  -v circle -c black
n -t * -s 19  -x 200 -y 500 -Z 0 -z 30  -v circle -c black
n -t * -s 20  -x 400 -y 400 -Z 0 -z 30  -v circle -c black
n -t * -s 21  -x 200 -y 400 -Z 0 -z 30  -v circle -c black
n -t * -s 22  -x 400 -y 300 -Z 0 -z 30  -v circle -c black
n -t * -s 23  -x 200 -y 300 -Z 0 -z 30  -v circle -c black
V -t * -v 1.0a5 -a 0
W -t * -x 500 -y 500
A -t * -n 1 -p 0 -o 0xffffffff -c 31 -a 1
A -t * -h 1 -m 2147483647 -s 0
+ -t 15.000000000 -s 0 -d -1 -p cbr -e 512 -c 2 -a 0 -i 0 -k AGT 
- -t 15.000000000 -s 0 -d -1 -p cbr -e 512 -c 2 -a 0 -i 0 -k AGT
h -t 15.000000000 -s 0 -d -1 -p cbr -e 512 -c 2 -a 0 -i 0 -k AGT
+ -t 15.000000000 -s 3 -d -1 -p cbr -e 512 -c 2 -a 0 -i 2 -k AGT 
- -t 15.000000000 -s 3 -d -1 -p cbr -e 512 -c 2 -a 0 -i 2 -k AGT
h -t 15.000000000 -s 3 -d -1 -p cbr -e 512 -c 2 -a 0 -i 2 -k AGT
+ -t 15.000000000 -s 7 -d -1 -p cbr -e 512 -c 2 -a 0 -i 4 -k AGT 
- -t 15.000000000 -s 7 -d -1 -p cbr -e 512 -c 2 -a 0 -i 4 -k AGT
h -t 15.000000000 -s 7 -d -1 -p cbr -e 512 -c 2 -a 0 -i 4 -k AGT
+ -t 15.002906133 -s 7 -d -1 -p DSR -e 32 -c 2 -a 0 -i 5 -k RTR 
- -t 15.002906133 -s 7 -d -1 -p DSR -e 32 -c 2 -a 0 -i 5 -k RTR
h -t 15.002906133 -s 7 -d -1 -p DSR -e 32 -c 2 -a 0 -i 5 -k RTR
+ -t 15.005072254 -s 11 -d 7 -p DSR -e 44 -c 2 -a 0 -i 6 -k RTR 
- -t 15.005072254 -s 11 -d 7 -p DSR -e 44 -c 2 -a 0 -i 6 -k RTR
h -t 15.005072254 -s 11 -d 7 -p DSR -e 44 -c 2 -a 0 -i 6 -k RTR
+ -t 15.005505108 -s 0 -d -1 -p DSR -e 32 -c 2 -a 0 -i 1 -k RTR 
- -t 15.005505108 -s 0 -d -1 -p DSR -e 32 -c 2 -a 0 -i 1 -k RTR
h -t 15.005505108 -s 0 -d -1 -p DSR -e 32 -c 2 -a 0 -i 1 -k RTR
+ -t 15.007198490 -s 7 -d 11 -p cbr -e 548 -c 2 -a 0 -i 4 -k RTR 
- -t 15.007198490 -s 7 -d 11 -p cbr -e 548 -c 2 -a 0 -i 4 -k RTR
h -t 15.007198490 -s 7 -d 11 -p cbr -e 548 -c 2 -a 0 -i 4 -k RTR
+ -t 15.008299048 -s 3 -d -1 -p DSR -e 32 -c 2 -a 0 -i 3 -k RTR 
- -t 15.008299048 -s 3 -d -1 -p DSR -e 32 -c 2 -a 0 -i 3 -k RTR
h -t 15.008299048 -s 3 -d -1 -p DSR -e 32 -c 2 -a 0 -i 3 -k RTR
r -t 15.015450748 -s 11 -d 11 -p cbr -e 512 -c 2 -a 0 -i 4 -k AGT
+ -t 15.053587764 -s 7 -d -1 -p cbr -e 512 -c 2 -a 0 -i 10 -k AGT 
- -t 15.053587764 -s 7 -d -1 -p cbr -e 512 -c 2 -a 0 -i 10 -k AGT
h -t 15.053587764 -s 7 -d -1 -p cbr -e 512 -c 2 -a 0 -i 10 -k AGT
+ -t 15.053587764 -s 7 -d 11 -p cbr -e 548 -c 2 -a 0 -i 10 -k RTR 
- -t 15.053587764 -s 7 -d 11 -p cbr -e 548 -c 2 -a 0 -i 10 -k RTR
h -t 15.053587764 -s 7 -d 11 -p cbr -e 548 -c 2 -a 0 -i 10 -k RTR
+ -t 15.056814946 -s 0 -d -1 -p DSR -e 32 -c 2 -a 0 -i 9 -k RTR 
- -t 15.056814946 -s 0 -d -1 -p DSR -e 32 -c 2 -a 0 -i 9 -k RTR
h -t 15.056814946 -s 0 -d -1 -p DSR -e 32 -c 2 -a 0 -i 9 -k RTR
r -t 15.059566000 -s 11 -d 11 -p cbr -e 512 -c 2 -a 0 -i 10 -k AGT
+ -t 15.061016920 -s 3 -d -1 -p cbr -e 512 -c 2 -a 0 -i 11 -k AGT 
- -t 15.061016920 -s 3 -d -1 -p cbr -e 512 -c 2 -a 0 -i 11 -k AGT
h -t 15.061016920 -s 3 -d -1 -p cbr -e 512 -c 2 -a 0 -i 11 -k AGT
+ -t 15.064108254 -s 4 -d -1 -p DSR -e 48 -c 2 -a 0 -i 9 -k RTR 
- -t 15.064108254 -s 4 -d -1 -p DSR -e 48 -c 2 -a 0 -i 9 -k RTR
h -t 15.064108254 -s 4 -d -1 -p DSR -e 48 -c 2 -a 0 -i 9 -k RTR
+ -t 15.066479097 -s 8 -d -1 -p DSR -e 68 -c 2 -a 0 -i 9 -k RTR 
- -t 15.066479097 -s 8 -d -1 -p DSR -e 68 -c 2 -a 0 -i 9 -k RTR
h -t 15.066479097 -s 8 -d -1 -p DSR -e 68 -c 2 -a 0 -i 9 -k RTR
+ -t 15.068354916 -s 1 -d -1 -p DSR -e 48 -c 2 -a 0 -i 9 -k RTR 
- -t 15.068354916 -s 1 -d -1 -p DSR -e 48 -c 2 -a 0 -i 9 -k RTR
h -t 15.068354916 -s 1 -d -1 -p DSR -e 48 -c 2 -a 0 -i 9 -k RTR
+ -t 15.068523143 -s 10 -d -1 -p DSR -e 68 -c 2 -a 0 -i 9 -k RTR 
- -t 15.068523143 -s 10 -d -1 -p DSR -e 68 -c 2 -a 0 -i 9 -k RTR
h -t 15.068523143 -s 10 -d -1 -p DSR -e 68 -c 2 -a 0 -i 9 -k RTR
+ -t 15.068907323 -s 3 -d -1 -p DSR -e 32 -c 2 -a 0 -i 12 -k RTR 
- -t 15.068907323 -s 3 -d -1 -p DSR -e 32 -c 2 -a 0 -i 12 -k RTR
h -t 15.068907323 -s 3 -d -1 -p DSR -e 32 -c 2 -a 0 -i 12 -k RTR
+ -t 15.070106675 -s 9 -d -1 -p DSR -e 92 -c 2 -a 0 -i 9 -k RTR 
- -t 15.070106675 -s 9 -d -1 -p DSR -e 92 -c 2 -a 0 -i 9 -k RTR
h -t 15.070106675 -s 9 -d -1 -p DSR -e 92 -c 2 -a 0 -i 9 -k RTR
+ -t 15.070127115 -s 21 -d -1 -p DSR -e 92 -c 2 -a 0 -i 9 -k RTR 
- -t 15.070127115 -s 21 -d -1 -p DSR -e 92 -c 2 -a 0 -i 9 -k RTR
h -t 15.070127115 -s 21 -d -1 -p DSR -e 92 -c 2 -a 0 -i 9 -k RTR
+ -t 15.070195188 -s 3 -d -1 -p DSR -e 48 -c 2 -a 0 -i 9 -k RTR 
- -t 15.070195188 -s 3 -d -1 -p DSR -e 48 -c 2 -a 0 -i 9 -k RTR
h -t 15.070195188 -s 3 -d -1 -p DSR -e 48 -c 2 -a 0 -i 9 -k RTR
+ -t 15.070286083 -s 22 -d -1 -p DSR -e 68 -c 2 -a 0 -i 9 -k RTR 
- -t 15.070286083 -s 22 -d -1 -p DSR -e 68 -c 2 -a 0 -i 9 -k RTR
h -t 15.070286083 -s 22 -d -1 -p DSR -e 68 -c 2 -a 0 -i 9 -k RTR
+ -t 15.070293620 -s 7 -d -1 -p DSR -e 68 -c 2 -a 0 -i 9 -k RTR 
- -t 15.070293620 -s 7 -d -1 -p DSR -e 68 -c 2 -a 0 -i 9 -k RTR
h -t 15.070293620 -s 7 -d -1 -p DSR -e 68 -c 2 -a 0 -i 9 -k RTR
+ -t 15.070537862 -s 20 -d -1 -p DSR -e 92 -c 2 -a 0 -i 9 -k RTR 
- -t 15.070537862 -s 20 -d -1 -p DSR -e 92 -c 2 -a 0 -i 9 -k RTR
h -t 15.070537862 -s 20 -d -1 -p DSR -e 92 -c 2 -a 0 -i 9 -k RTR
+ -t 15.070727545 -s 16 -d -1 -p DSR -e 92 -c 2 -a 0 -i 9 -k RTR 
- -t 15.070727545 -s 16 -d -1 -p DSR -e 92 -c 2 -a 0 -i 9 -k RTR
h -t 15.070727545 -s 16 -d -1 -p DSR -e 92 -c 2 -a 0 -i 9 -k RTR
+ -t 15.070991179 -s 18 -d 10 -p DSR -e 60 -c 2 -a 0 -i 13 -k RTR 
- -t 15.070991179 -s 18 -d 10 -p DSR -e 60 -c 2 -a 0 -i 13 -k RTR
h -t 15.070991179 -s 18 -d 10 -p DSR -e 60 -c 2 -a 0 -i 13 -k RTR
+ -t 15.071367529 -s 6 -d -1 -p DSR -e 48 -c 2 -a 0 -i 9 -k RTR 
- -t 15.071367529 -s 6 -d -1 -p DSR -e 48 -c 2 -a 0 -i 9 -k RTR
h -t 15.071367529 -s 6 -d -1 -p DSR -e 48 -c 2 -a 0 -i 9 -k RTR
+ -t 15.074632828 -s 5 -d -1 -p DSR -e 68 -c 2 -a 0 -i 9 -k RTR 
- -t 15.074632828 -s 5 -d -1 -p DSR -e 68 -c 2 -a 0 -i 9 -k RTR
h -t 15.074632828 -s 5 -d -1 -p DSR -e 68 -c 2 -a 0 -i 9 -k RTR
+ -t 15.075293097 -s 2 -d -1 -p DSR -e 68 -c 2 -a 0 -i 9 -k RTR 
- -t 15.075293097 -s 2 -d -1 -p DSR -e 68 -c 2 -a 0 -i 9 -k RTR
h -t 15.075293097 -s 2 -d -1 -p DSR -e 68 -c 2 -a 0 -i 9 -k RTR
+ -t 15.075460806 -s 14 -d -1 -p DSR -e 92 -c 2 -a 0 -i 9 -k RTR 
- -t 15.075460806 -s 14 -d -1 -p DSR -e 92 -c 2 -a 0 -i 9 -k RTR
h -t 15.075460806 -s 14 -d -1 -p DSR -e 92 -c 2 -a 0 -i 9 -k RTR
+ -t 15.075538958 -s 23 -d -1 -p DSR -e 68 -c 2 -a 0 -i 9 -k RTR 
- -t 15.075538958 -s 23 -d -1 -p DSR -e 68 -c 2 -a 0 -i 9 -k RTR
h -t 15.075538958 -s 23 -d -1 -p DSR -e 68 -c 2 -a 0 -i 9 -k RTR
+ -t 15.075968991 -s 11 -d -1 -p DSR -e 92 -c 2 -a 0 -i 9 -k RTR 
- -t 15.075968991 -s 11 -d -1 -p DSR -e 92 -c 2 -a 0 -i 9 -k RTR
h -t 15.075968991 -s 11 -d -1 -p DSR -e 92 -c 2 -a 0 -i 9 -k RTR
+ -t 15.076119215 -s 12 -d -1 -p DSR -e 92 -c 2 -a 0 -i 9 -k RTR 
- -t 15.076119215 -s 12 -d -1 -p DSR -e 92 -c 2 -a 0 -i 9 -k RTR
h -t 15.076119215 -s 12 -d -1 -p DSR -e 92 -c 2 -a 0 -i 9 -k RTR
+ -t 15.076725005 -s 18 -d 22 -p DSR -e 60 -c 2 -a 0 -i 17 -k RTR 
- -t 15.076725005 -s 18 -d 22 -p DSR -e 60 -c 2 -a 0 -i 17 -k RTR
h -t 15.076725005 -s 18 -d 22 -p DSR -e 60 -c 2 -a 0 -i 17 -k RTR
+ -t 15.077334676 -s 19 -d -1 -p DSR -e 92 -c 2 -a 0 -i 9 -k RTR 
- -t 15.077334676 -s 19 -d -1 -p DSR -e 92 -c 2 -a 0 -i 9 -k RTR
h -t 15.077334676 -s 19 -d -1 -p DSR -e 92 -c 2 -a 0 -i 9 -k RTR
+ -t 15.077517363 -s 15 -d -1 -p DSR -e 120 -c 2 -a 0 -i 9 -k RTR 
- -t 15.077517363 -s 15 -d -1 -p DSR -e 120 -c 2 -a 0 -i 9 -k RTR
h -t 15.077517363 -s 15 -d -1 -p DSR -e 120 -c 2 -a 0 -i 9 -k RTR
+ -t 15.077599483 -s 18 -d 21 -p DSR -e 68 -c 2 -a 0 -i 16 -k RTR 
- -t 15.077599483 -s 18 -d 21 -p DSR -e 68 -c 2 -a 0 -i 16 -k RTR
h -t 15.077599483 -s 18 -d 21 -p DSR -e 68 -c 2 -a 0 -i 16 -k RTR
+ -t 15.077770908 -s 17 -d -1 -p DSR -e 92 -c 2 -a 0 -i 9 -k RTR 
- -t 15.077770908 -s 17 -d -1 -p DSR -e 92 -c 2 -a 0 -i 9 -k RTR
h -t 15.077770908 -s 17 -d -1 -p DSR -e 92 -c 2 -a 0 -i 9 -k RTR
+ -t 15.078625036 -s 13 -d -1 -p DSR -e 92 -c 2 -a 0 -i 9 -k RTR 
- -t 15.078625036 -s 13 -d -1 -p DSR -e 92 -c 2 -a 0 -i 9 -k RTR
h -t 15.078625036 -s 13 -d -1 -p DSR -e 92 -c 2 -a 0 -i 9 -k RTR
+ -t 15.085319832 -s 10 -d 4 -p DSR -e 60 -c 2 -a 0 -i 13 -k RTR 
- -t 15.085319832 -s 10 -d 4 -p DSR -e 60 -c 2 -a 0 -i 13 -k RTR
h -t 15.085319832 -s 10 -d 4 -p DSR -e 60 -c 2 -a 0 -i 13 -k RTR
+ -t 15.085539669 -s 18 -d 16 -p DSR -e 68 -c 2 -a 0 -i 18 -k RTR 
- -t 15.085539669 -s 18 -d 16 -p DSR -e 68 -c 2 -a 0 -i 18 -k RTR
h -t 15.085539669 -s 18 -d 16 -p DSR -e 68 -c 2 -a 0 -i 18 -k RTR
+ -t 15.085786699 -s 18 -d 19 -p DSR -e 68 -c 2 -a 0 -i 19 -k RTR 
- -t 15.085786699 -s 18 -d 19 -p DSR -e 68 -c 2 -a 0 -i 19 -k RTR
h -t 15.085786699 -s 18 -d 19 -p DSR -e 68 -c 2 -a 0 -i 19 -k RTR
+ -t 15.089213587 -s 18 -d 20 -p DSR -e 68 -c 2 -a 0 -i 21 -k RTR 
- -t 15.089213587 -s 18 -d 20 -p DSR -e 68 -c 2 -a 0 -i 21 -k RTR
h -t 15.089213587 -s 18 -d 20 -p DSR -e 68 -c 2 -a 0 -i 21 -k RTR
+ -t 15.089782970 -s 4 -d 0 -p DSR -e 60 -c 2 -a 0 -i 13 -k RTR 
- -t 15.089782970 -s 4 -d 0 -p DSR -e 60 -c 2 -a 0 -i 13 -k RTR
h -t 15.089782970 -s 4 -d 0 -p DSR -e 60 -c 2 -a 0 -i 13 -k RTR
+ -t 15.090995036 -s 18 -d 13 -p DSR -e 68 -c 2 -a 0 -i 22 -k RTR 
- -t 15.090995036 -s 18 -d 13 -p DSR -e 68 -c 2 -a 0 -i 22 -k RTR
h -t 15.090995036 -s 18 -d 13 -p DSR -e 68 -c 2 -a 0 -i 22 -k RTR
+ -t 15.092116785 -s 18 -d 14 -p DSR -e 68 -c 2 -a 0 -i 20 -k RTR 
- -t 15.092116785 -s 18 -d 14 -p DSR -e 68 -c 2 -a 0 -i 20 -k RTR
h -t 15.092116785 -s 18 -d 14 -p DSR -e 68 -c 2 -a 0 -i 20 -k RTR
+ -t 15.092429251 -s 9 -d -1 -p DSR -e 48 -c 2 -a 0 -i 12 -k RTR 
- -t 15.092429251 -s 9 -d -1 -p DSR -e 48 -c 2 -a 0 -i 12 -k RTR
h -t 15.092429251 -s 9 -d -1 -p DSR -e 48 -c 2 -a 0 -i 12 -k RTR
+ -t 15.093712409 -s 0 -d -1 -p DSR -e 48 -c 2 -a 0 -i 12 -k RTR 
- -t 15.093712409 -s 0 -d -1 -p DSR -e 48 -c 2 -a 0 -i 12 -k RTR
h -t 15.093712409 -s 0 -d -1 -p DSR -e 48 -c 2 -a 0 -i 12 -k RTR
+ -t 15.094572349 -s 6 -d -1 -p DSR -e 48 -c 2 -a 0 -i 12 -k RTR 
- -t 15.094572349 -s 6 -d -1 -p DSR -e 48 -c 2 -a 0 -i 12 -k RTR
h -t 15.094572349 -s 6 -d -1 -p DSR -e 48 -c 2 -a 0 -i 12 -k RTR
+ -t 15.094745109 -s 0 -d 4 -p cbr -e 556 -c 2 -a 0 -i 0 -k RTR 
- -t 15.094745109 -s 0 -d 4 -p cbr -e 556 -c 2 -a 0 -i 0 -k RTR
h -t 15.094745109 -s 0 -d 4 -p cbr -e 556 -c 2 -a 0 -i 0 -k RTR
+ -t 15.098441822 -s 4 -d -1 -p DSR -e 48 -c 2 -a 0 -i 12 -k RTR 
- -t 15.098441822 -s 4 -d -1 -p DSR -e 48 -c 2 -a 0 -i 12 -k RTR
h -t 15.098441822 -s 4 -d -1 -p DSR -e 48 -c 2 -a 0 -i 12 -k RTR
+ -t 15.100014211 -s 1 -d -1 -p DSR -e 48 -c 2 -a 0 -i 12 -k RTR 
- -t 15.100014211 -s 1 -d -1 -p DSR -e 48 -c 2 -a 0 -i 12 -k RTR
h -t 15.100014211 -s 1 -d -1 -p DSR -e 48 -c 2 -a 0 -i 12 -k RTR
+ -t 15.101741345 -s 4 -d 10 -p cbr -e 556 -c 2 -a 0 -i 0 -k RTR 
- -t 15.101741345 -s 4 -d 10 -p cbr -e 556 -c 2 -a 0 -i 0 -k RTR
h -t 15.101741345 -s 4 -d 10 -p cbr -e 556 -c 2 -a 0 -i 0 -k RTR
+ -t 15.102946012 -s 10 -d 4 -p DSR -e 56 -c 2 -a 0 -i 24 -k RTR 
- -t 15.102946012 -s 10 -d 4 -p DSR -e 56 -c 2 -a 0 -i 24 -k RTR
h -t 15.102946012 -s 10 -d 4 -p DSR -e 56 -c 2 -a 0 -i 24 -k RTR
+ -t 15.102946090 -s 22 -d 4 -p DSR -e 56 -c 2 -a 0 -i 25 -k RTR 
- -t 15.102946090 -s 22 -d 4 -p DSR -e 56 -c 2 -a 0 -i 25 -k RTR
h -t 15.102946090 -s 22 -d 4 -p DSR -e 56 -c 2 -a 0 -i 25 -k RTR
+ -t 15.103976836 -s 21 -d 6 -p DSR -e 56 -c 2 -a 0 -i 26 -k RTR 
- -t 15.103976836 -s 21 -d 6 -p DSR -e 56 -c 2 -a 0 -i 26 -k RTR
h -t 15.103976836 -s 21 -d 6 -p DSR -e 56 -c 2 -a 0 -i 26 -k RTR
+ -t 15.104038490 -s 7 -d -1 -p cbr -e 512 -c 2 -a 0 -i 27 -k AGT 
- -t 15.104038490 -s 7 -d -1 -p cbr -e 512 -c 2 -a 0 -i 27 -k AGT
h -t 15.104038490 -s 7 -d -1 -p cbr -e 512 -c 2 -a 0 -i 27 -k AGT
+ -t 15.104038490 -s 7 -d 11 -p cbr -e 548 -c 2 -a 0 -i 27 -k RTR 
- -t 15.104038490 -s 7 -d 11 -p cbr -e 548 -c 2 -a 0 -i 27 -k RTR
h -t 15.104038490 -s 7 -d 11 -p cbr -e 548 -c 2 -a 0 -i 27 -k RTR
+ -t 15.106169836 -s 19 -d 9 -p DSR -e 56 -c 2 -a 0 -i 28 -k RTR 
- -t 15.106169836 -s 19 -d 9 -p DSR -e 56 -c 2 -a 0 -i 28 -k RTR
h -t 15.106169836 -s 19 -d 9 -p DSR -e 56 -c 2 -a 0 -i 28 -k RTR
+ -t 15.106169836 -s 13 -d 9 -p DSR -e 56 -c 2 -a 0 -i 29 -k RTR 
- -t 15.106169836 -s 13 -d 9 -p DSR -e 56 -c 2 -a 0 -i 29 -k RTR
h -t 15.106169836 -s 13 -d 9 -p DSR -e 56 -c 2 -a 0 -i 29 -k RTR
+ -t 15.106506848 -s 15 -d -1 -p DSR -e 68 -c 2 -a 0 -i 12 -k RTR 
- -t 15.106506848 -s 15 -d -1 -p DSR -e 68 -c 2 -a 0 -i 12 -k RTR
h -t 15.106506848 -s 15 -d -1 -p DSR -e 68 -c 2 -a 0 -i 12 -k RTR
+ -t 15.107981798 -s 6 -d 3 -p DSR -e 56 -c 2 -a 0 -i 26 -k RTR 
- -t 15.107981798 -s 6 -d 3 -p DSR -e 56 -c 2 -a 0 -i 26 -k RTR
h -t 15.107981798 -s 6 -d 3 -p DSR -e 56 -c 2 -a 0 -i 26 -k RTR
+ -t 15.108117904 -s 5 -d -1 -p DSR -e 68 -c 2 -a 0 -i 12 -k RTR 
- -t 15.108117904 -s 5 -d -1 -p DSR -e 68 -c 2 -a 0 -i 12 -k RTR
h -t 15.108117904 -s 5 -d -1 -p DSR -e 68 -c 2 -a 0 -i 12 -k RTR
+ -t 15.109428541 -s 8 -d -1 -p DSR -e 68 -c 2 -a 0 -i 12 -k RTR 
- -t 15.109428541 -s 8 -d -1 -p DSR -e 68 -c 2 -a 0 -i 12 -k RTR
h -t 15.109428541 -s 8 -d -1 -p DSR -e 68 -c 2 -a 0 -i 12 -k RTR
+ -t 15.109908543 -s 4 -d 3 -p DSR -e 56 -c 2 -a 0 -i 24 -k RTR 
- -t 15.109908543 -s 4 -d 3 -p DSR -e 56 -c 2 -a 0 -i 24 -k RTR
h -t 15.109908543 -s 4 -d 3 -p DSR -e 56 -c 2 -a 0 -i 24 -k RTR
+ -t 15.110594375 -s 2 -d -1 -p DSR -e 68 -c 2 -a 0 -i 12 -k RTR 
- -t 15.110594375 -s 2 -d -1 -p DSR -e 68 -c 2 -a 0 -i 12 -k RTR
h -t 15.110594375 -s 2 -d -1 -p DSR -e 68 -c 2 -a 0 -i 12 -k RTR
+ -t 15.110857391 -s 23 -d -1 -p DSR -e 68 -c 2 -a 0 -i 12 -k RTR 
- -t 15.110857391 -s 23 -d -1 -p DSR -e 68 -c 2 -a 0 -i 12 -k RTR
h -t 15.110857391 -s 23 -d -1 -p DSR -e 68 -c 2 -a 0 -i 12 -k RTR
+ -t 15.111914166 -s 7 -d -1 -p DSR -e 68 -c 2 -a 0 -i 12 -k RTR 
- -t 15.111914166 -s 7 -d -1 -p DSR -e 68 -c 2 -a 0 -i 12 -k RTR
h -t 15.111914166 -s 7 -d -1 -p DSR -e 68 -c 2 -a 0 -i 12 -k RTR
+ -t 15.113653491 -s 12 -d -1 -p DSR -e 68 -c 2 -a 0 -i 12 -k RTR 
- -t 15.113653491 -s 12 -d -1 -p DSR -e 68 -c 2 -a 0 -i 12 -k RTR
h -t 15.113653491 -s 12 -d -1 -p DSR -e 68 -c 2 -a 0 -i 12 -k RTR
+ -t 15.114837110 -s 0 -d -1 -p cbr -e 512 -c 2 -a 0 -i 32 -k AGT 
- -t 15.114837110 -s 0 -d -1 -p cbr -e 512 -c 2 -a 0 -i 32 -k AGT
h -t 15.114837110 -s 0 -d -1 -p cbr -e 512 -c 2 -a 0 -i 32 -k AGT
+ -t 15.114837110 -s 0 -d 4 -p cbr -e 556 -c 2 -a 0 -i 32 -k RTR 
- -t 15.114837110 -s 0 -d 4 -p cbr -e 556 -c 2 -a 0 -i 32 -k RTR
h -t 15.114837110 -s 0 -d 4 -p cbr -e 556 -c 2 -a 0 -i 32 -k RTR
+ -t 15.115834543 -s 10 -d 18 -p cbr -e 556 -c 2 -a 0 -i 0 -k RTR 
- -t 15.115834543 -s 10 -d 18 -p cbr -e 556 -c 2 -a 0 -i 0 -k RTR
h -t 15.115834543 -s 10 -d 18 -p cbr -e 556 -c 2 -a 0 -i 0 -k RTR
+ -t 15.118432153 -s 11 -d 5 -p DSR -e 64 -c 2 -a 0 -i 34 -k RTR 
- -t 15.118432153 -s 11 -d 5 -p DSR -e 64 -c 2 -a 0 -i 34 -k RTR
h -t 15.118432153 -s 11 -d 5 -p DSR -e 64 -c 2 -a 0 -i 34 -k RTR
+ -t 15.119703973 -s 18 -d 11 -p DSR -e 68 -c 2 -a 0 -i 33 -k RTR 
- -t 15.119703973 -s 18 -d 11 -p DSR -e 68 -c 2 -a 0 -i 33 -k RTR
h -t 15.119703973 -s 18 -d 11 -p DSR -e 68 -c 2 -a 0 -i 33 -k RTR
+ -t 15.120553153 -s 14 -d 8 -p DSR -e 64 -c 2 -a 0 -i 35 -k RTR 
- -t 15.120553153 -s 14 -d 8 -p DSR -e 64 -c 2 -a 0 -i 35 -k RTR
h -t 15.120553153 -s 14 -d 8 -p DSR -e 64 -c 2 -a 0 -i 35 -k RTR
+ -t 15.120553231 -s 20 -d 8 -p DSR -e 64 -c 2 -a 0 -i 36 -k RTR 
- -t 15.120553231 -s 20 -d 8 -p DSR -e 64 -c 2 -a 0 -i 36 -k RTR
h -t 15.120553231 -s 20 -d 8 -p DSR -e 64 -c 2 -a 0 -i 36 -k RTR
+ -t 15.126639340 -s 16 -d 12 -p DSR -e 64 -c 2 -a 0 -i 37 -k RTR 
- -t 15.126639340 -s 16 -d 12 -p DSR -e 64 -c 2 -a 0 -i 37 -k RTR
h -t 15.126639340 -s 16 -d 12 -p DSR -e 64 -c 2 -a 0 -i 37 -k RTR
+ -t 15.128345576 -s 12 -d 6 -p DSR -e 64 -c 2 -a 0 -i 37 -k RTR 
- -t 15.128345576 -s 12 -d 6 -p DSR -e 64 -c 2 -a 0 -i 37 -k RTR
h -t 15.128345576 -s 12 -d 6 -p DSR -e 64 -c 2 -a 0 -i 37 -k RTR
+ -t 15.130375576 -s 6 -d 3 -p DSR -e 64 -c 2 -a 0 -i 37 -k RTR 
- -t 15.130375576 -s 6 -d 3 -p DSR -e 64 -c 2 -a 0 -i 37 -k RTR
h -t 15.130375576 -s 6 -d 3 -p DSR -e 64 -c 2 -a 0 -i 37 -k RTR
+ -t 15.132472111 -s 3 -d 4 -p cbr -e 556 -c 2 -a 0 -i 2 -k RTR 
- -t 15.132472111 -s 3 -d 4 -p cbr -e 556 -c 2 -a 0 -i 2 -k RTR
h -t 15.132472111 -s 3 -d 4 -p cbr -e 556 -c 2 -a 0 -i 2 -k RTR
+ -t 15.142512778 -s 4 -d 10 -p cbr -e 556 -c 2 -a 0 -i 2 -k RTR 
- -t 15.142512778 -s 4 -d 10 -p cbr -e 556 -c 2 -a 0 -i 2 -k RTR
h -t 15.142512778 -s 4 -d 10 -p cbr -e 556 -c 2 -a 0 -i 2 -k RTR
+ -t 15.145398899 -s 3 -d -1 -p cbr -e 512 -c 2 -a 0 -i 38 -k AGT 
- -t 15.145398899 -s 3 -d -1 -p cbr -e 512 -c 2 -a 0 -i 38 -k AGT
h -t 15.145398899 -s 3 -d -1 -p cbr -e 512 -c 2 -a 0 -i 38 -k AGT
+ -t 15.145398899 -s 3 -d 4 -p cbr -e 556 -c 2 -a 0 -i 38 -k RTR 
- -t 15.145398899 -s 3 -d 4 -p cbr -e 556 -c 2 -a 0 -i 38 -k RTR
h -t 15.145398899 -s 3 -d 4 -p cbr -e 556 -c 2 -a 0 -i 38 -k RTR
r -t 15.149446231 -s 11 -d 11 -p cbr -e 512 -c 2 -a 0 -i 27 -k AGT
+ -t 15.151413212 -s 9 -d 3 -p DSR -e 56 -c 2 -a 0 -i 29 -k RTR 
- -t 15.151413212 -s 9 -d 3 -p DSR -e 56 -c 2 -a 0 -i 29 -k RTR
h -t 15.151413212 -s 9 -d 3 -p DSR -e 56 -c 2 -a 0 -i 29 -k RTR
r -t 15.157380115 -s 18 -d 18 -p cbr -e 512 -c 2 -a 0 -i 0 -k AGT
+ -t 15.159370860 -s 5 -d 4 -p DSR -e 64 -c 2 -a 0 -i 34 -k RTR 
- -t 15.159370860 -s 5 -d 4 -p DSR -e 64 -c 2 -a 0 -i 34 -k RTR
h -t 15.159370860 -s 5 -d 4 -p DSR -e 64 -c 2 -a 0 -i 34 -k RTR
+ -t 15.162472111 -s 3 -d 4 -p cbr -e 556 -c 2 -a 0 -i 11 -k RTR 
- -t 15.162472111 -s 3 -d 4 -p cbr -e 556 -c 2 -a 0 -i 11 -k RTR
h -t 15.162472111 -s 3 -d 4 -p cbr -e 556 -c 2 -a 0 -i 11 -k RTR
+ -t 15.165387136 -s 10 -d 18 -p cbr -e 556 -c 2 -a 0 -i 2 -k RTR 
- -t 15.165387136 -s 10 -d 18 -p cbr -e 556 -c 2 -a 0 -i 2 -k RTR
h -t 15.165387136 -s 10 -d 18 -p cbr -e 556 -c 2 -a 0 -i 2 -k RTR
+ -t 15.170377653 -s 4 -d 3 -p DSR -e 64 -c 2 -a 0 -i 34 -k RTR 
- -t 15.170377653 -s 4 -d 3 -p DSR -e 64 -c 2 -a 0 -i 34 -k RTR
h -t 15.170377653 -s 4 -d 3 -p DSR -e 64 -c 2 -a 0 -i 34 -k RTR
+ -t 15.181434617 -s 4 -d 10 -p cbr -e 556 -c 2 -a 0 -i 38 -k RTR 
- -t 15.181434617 -s 4 -d 10 -p cbr -e 556 -c 2 -a 0 -i 38 -k RTR
h -t 15.181434617 -s 4 -d 10 -p cbr -e 556 -c 2 -a 0 -i 38 -k RTR
+ -t 15.186535590 -s 7 -d -1 -p cbr -e 512 -c 2 -a 0 -i 39 -k AGT 
- -t 15.186535590 -s 7 -d -1 -p cbr -e 512 -c 2 -a 0 -i 39 -k AGT
h -t 15.186535590 -s 7 -d -1 -p cbr -e 512 -c 2 -a 0 -i 39 -k AGT
+ -t 15.186535590 -s 7 -d 11 -p cbr -e 532 -c 2 -a 0 -i 39 -k RTR 
- -t 15.186535590 -s 7 -d 11 -p cbr -e 532 -c 2 -a 0 -i 39 -k RTR
h -t 15.186535590 -s 7 -d 11 -p cbr -e 532 -c 2 -a 0 -i 39 -k RTR
+ -t 15.187361284 -s 4 -d 10 -p cbr -e 556 -c 2 -a 0 -i 11 -k RTR 
- -t 15.187361284 -s 4 -d 10 -p cbr -e 556 -c 2 -a 0 -i 11 -k RTR
h -t 15.187361284 -s 4 -d 10 -p cbr -e 556 -c 2 -a 0 -i 11 -k RTR
r -t 15.193477796 -s 18 -d 18 -p cbr -e 512 -c 2 -a 0 -i 2 -k AGT
+ -t 15.195768365 -s 8 -d 4 -p DSR -e 64 -c 2 -a 0 -i 36 -k RTR 
- -t 15.195768365 -s 8 -d 4 -p DSR -e 64 -c 2 -a 0 -i 36 -k RTR
h -t 15.195768365 -s 8 -d 4 -p DSR -e 64 -c 2 -a 0 -i 36 -k RTR
+ -t 15.197735073 -s 4 -d 3 -p DSR -e 56 -c 2 -a 0 -i 25 -k RTR 
- -t 15.197735073 -s 4 -d 3 -p DSR -e 56 -c 2 -a 0 -i 25 -k RTR
h -t 15.197735073 -s 4 -d 3 -p DSR -e 56 -c 2 -a 0 -i 25 -k RTR
+ -t 15.200688696 -s 9 -d 3 -p DSR -e 56 -c 2 -a 0 -i 28 -k RTR 
- -t 15.200688696 -s 9 -d 3 -p DSR -e 56 -c 2 -a 0 -i 28 -k RTR
h -t 15.200688696 -s 9 -d 3 -p DSR -e 56 -c 2 -a 0 -i 28 -k RTR
r -t 15.209526209 -s 11 -d 11 -p cbr -e 512 -c 2 -a 0 -i 39 -k AGT
+ -t 15.211516778 -s 4 -d 3 -p DSR -e 64 -c 2 -a 0 -i 36 -k RTR 
- -t 15.211516778 -s 4 -d 3 -p DSR -e 64 -c 2 -a 0 -i 36 -k RTR
h -t 15.211516778 -s 4 -d 3 -p DSR -e 64 -c 2 -a 0 -i 36 -k RTR
+ -t 15.223992087 -s 3 -d -1 -p cbr -e 512 -c 2 -a 0 -i 40 -k AGT 
- -t 15.223992087 -s 3 -d -1 -p cbr -e 512 -c 2 -a 0 -i 40 -k AGT
h -t 15.223992087 -s 3 -d -1 -p cbr -e 512 -c 2 -a 0 -i 40 -k AGT
+ -t 15.223992087 -s 3 -d 4 -p cbr -e 532 -c 2 -a 0 -i 40 -k RTR 
- -t 15.223992087 -s 3 -d 4 -p cbr -e 532 -c 2 -a 0 -i 40 -k RTR
h -t 15.223992087 -s 3 -d 4 -p cbr -e 532 -c 2 -a 0 -i 40 -k RTR
+ -t 15.225290778 -s 10 -d 18 -p cbr -e 556 -c 2 -a 0 -i 38 -k RTR 
- -t 15.225290778 -s 10 -d 18 -p cbr -e 556 -c 2 -a 0 -i 38 -k RTR
h -t 15.225290778 -s 10 -d 18 -p cbr -e 556 -c 2 -a 0 -i 38 -k RTR
+ -t 15.231197445 -s 10 -d 18 -p cbr -e 556 -c 2 -a 0 -i 11 -k RTR 
- -t 15.231197445 -s 10 -d 18 -p cbr -e 556 -c 2 -a 0 -i 11 -k RTR
h -t 15.231197445 -s 10 -d 18 -p cbr -e 556 -c 2 -a 0 -i 11 -k RTR
r -t 15.237583681 -s 18 -d 18 -p cbr -e 512 -c 2 -a 0 -i 38 -k AGT
+ -t 15.239724681 -s 16 -d 10 -p DSR -e 68 -c 2 -a 0 -i 18 -k RTR 
- -t 15.239724681 -s 16 -d 10 -p DSR -e 68 -c 2 -a 0 -i 18 -k RTR
h -t 15.239724681 -s 16 -d 10 -p DSR -e 68 -c 2 -a 0 -i 18 -k RTR
r -t 15.245931583 -s 18 -d 18 -p cbr -e 512 -c 2 -a 0 -i 11 -k AGT
+ -t 15.247993917 -s 10 -d 4 -p DSR -e 68 -c 2 -a 0 -i 18 -k RTR 
- -t 15.247993917 -s 10 -d 4 -p DSR -e 68 -c 2 -a 0 -i 18 -k RTR
h -t 15.247993917 -s 10 -d 4 -p DSR -e 68 -c 2 -a 0 -i 18 -k RTR
+ -t 15.250036898 -s 11 -d 8 -p DSR -e 68 -c 2 -a 0 -i 33 -k RTR 
- -t 15.250036898 -s 11 -d 8 -p DSR -e 68 -c 2 -a 0 -i 33 -k RTR
h -t 15.250036898 -s 11 -d 8 -p DSR -e 68 -c 2 -a 0 -i 33 -k RTR
+ -t 15.252139565 -s 4 -d 0 -p DSR -e 68 -c 2 -a 0 -i 18 -k RTR 
- -t 15.252139565 -s 4 -d 0 -p DSR -e 68 -c 2 -a 0 -i 18 -k RTR
h -t 15.252139565 -s 4 -d 0 -p DSR -e 68 -c 2 -a 0 -i 18 -k RTR
+ -t 15.258183841 -s 4 -d 10 -p cbr -e 532 -c 2 -a 0 -i 40 -k RTR 
- -t 15.258183841 -s 4 -d 10 -p cbr -e 532 -c 2 -a 0 -i 40 -k RTR
h -t 15.258183841 -s 4 -d 10 -p cbr -e 532 -c 2 -a 0 -i 40 -k RTR
+ -t 15.262043753 -s 0 -d -1 -p cbr -e 512 -c 2 -a 0 -i 41 -k AGT 
- -t 15.262043753 -s 0 -d -1 -p cbr -e 512 -c 2 -a 0 -i 41 -k AGT
h -t 15.262043753 -s 0 -d -1 -p cbr -e 512 -c 2 -a 0 -i 41 -k AGT
+ -t 15.262043753 -s 0 -d 4 -p cbr -e 556 -c 2 -a 0 -i 41 -k RTR 
- -t 15.262043753 -s 0 -d 4 -p cbr -e 556 -c 2 -a 0 -i 41 -k RTR
h -t 15.262043753 -s 0 -d 4 -p cbr -e 556 -c 2 -a 0 -i 41 -k RTR
+ -t 15.262458120 -s 14 -d 8 -p DSR -e 68 -c 2 -a 0 -i 20 -k RTR 
- -t 15.262458120 -s 14 -d 8 -p DSR -e 68 -c 2 -a 0 -i 20 -k RTR
h -t 15.262458120 -s 14 -d 8 -p DSR -e 68 -c 2 -a 0 -i 20 -k RTR
+ -t 15.264480006 -s 13 -d 10 -p DSR -e 68 -c 2 -a 0 -i 22 -k RTR 
- -t 15.264480006 -s 13 -d 10 -p DSR -e 68 -c 2 -a 0 -i 22 -k RTR
h -t 15.264480006 -s 13 -d 10 -p DSR -e 68 -c 2 -a 0 -i 22 -k RTR
+ -t 15.266481477 -s 20 -d 8 -p DSR -e 68 -c 2 -a 0 -i 21 -k RTR 
- -t 15.266481477 -s 20 -d 8 -p DSR -e 68 -c 2 -a 0 -i 21 -k RTR
h -t 15.266481477 -s 20 -d 8 -p DSR -e 68 -c 2 -a 0 -i 21 -k RTR
+ -t 15.268503811 -s 19 -d 10 -p DSR -e 68 -c 2 -a 0 -i 19 -k RTR 
- -t 15.268503811 -s 19 -d 10 -p DSR -e 68 -c 2 -a 0 -i 19 -k RTR
h -t 15.268503811 -s 19 -d 10 -p DSR -e 68 -c 2 -a 0 -i 19 -k RTR
+ -t 15.270906713 -s 21 -d 10 -p DSR -e 68 -c 2 -a 0 -i 16 -k RTR 
- -t 15.270906713 -s 21 -d 10 -p DSR -e 68 -c 2 -a 0 -i 16 -k RTR
h -t 15.270906713 -s 21 -d 10 -p DSR -e 68 -c 2 -a 0 -i 16 -k RTR
+ -t 15.272905459 -s 22 -d 4 -p DSR -e 60 -c 2 -a 0 -i 17 -k RTR 
- -t 15.272905459 -s 22 -d 4 -p DSR -e 60 -c 2 -a 0 -i 17 -k RTR
h -t 15.272905459 -s 22 -d 4 -p DSR -e 60 -c 2 -a 0 -i 17 -k RTR
+ -t 15.274843695 -s 4 -d 0 -p DSR -e 60 -c 2 -a 0 -i 17 -k RTR 
- -t 15.274843695 -s 4 -d 0 -p DSR -e 60 -c 2 -a 0 -i 17 -k RTR
h -t 15.274843695 -s 4 -d 0 -p DSR -e 60 -c 2 -a 0 -i 17 -k RTR
+ -t 15.280757695 -s 10 -d 18 -p cbr -e 532 -c 2 -a 0 -i 40 -k RTR 
- -t 15.280757695 -s 10 -d 18 -p cbr -e 532 -c 2 -a 0 -i 40 -k RTR
h -t 15.280757695 -s 10 -d 18 -p cbr -e 532 -c 2 -a 0 -i 40 -k RTR
+ -t 15.286141916 -s 8 -d 4 -p DSR -e 68 -c 2 -a 0 -i 21 -k RTR 
- -t 15.286141916 -s 8 -d 4 -p DSR -e 68 -c 2 -a 0 -i 21 -k RTR
h -t 15.286141916 -s 8 -d 4 -p DSR -e 68 -c 2 -a 0 -i 21 -k RTR
r -t 15.291976897 -s 18 -d 18 -p cbr -e 512 -c 2 -a 0 -i 40 -k AGT
+ -t 15.293998643 -s 8 -d 4 -p DSR -e 68 -c 2 -a 0 -i 33 -k RTR 
- -t 15.293998643 -s 8 -d 4 -p DSR -e 68 -c 2 -a 0 -i 33 -k RTR
h -t 15.293998643 -s 8 -d 4 -p DSR -e 68 -c 2 -a 0 -i 33 -k RTR
+ -t 15.296040879 -s 4 -d 0 -p DSR -e 68 -c 2 -a 0 -i 21 -k RTR 
- -t 15.296040879 -s 4 -d 0 -p DSR -e 68 -c 2 -a 0 -i 21 -k RTR
h -t 15.296040879 -s 4 -d 0 -p DSR -e 68 -c 2 -a 0 -i 21 -k RTR
+ -t 15.300510841 -s 4 -d 0 -p DSR -e 68 -c 2 -a 0 -i 33 -k RTR 
- -t 15.300510841 -s 4 -d 0 -p DSR -e 68 -c 2 -a 0 -i 33 -k RTR
h -t 15.300510841 -s 4 -d 0 -p DSR -e 68 -c 2 -a 0 -i 33 -k RTR
+ -t 15.305101013 -s 10 -d 4 -p DSR -e 68 -c 2 -a 0 -i 19 -k RTR 
- -t 15.305101013 -s 10 -d 4 -p DSR -e 68 -c 2 -a 0 -i 19 -k RTR
h -t 15.305101013 -s 10 -d 4 -p DSR -e 68 -c 2 -a 0 -i 19 -k RTR
+ -t 15.307182899 -s 10 -d 4 -p DSR -e 68 -c 2 -a 0 -i 16 -k RTR 
- -t 15.307182899 -s 10 -d 4 -p DSR -e 68 -c 2 -a 0 -i 16 -k RTR
h -t 15.307182899 -s 10 -d 4 -p DSR -e 68 -c 2 -a 0 -i 16 -k RTR
+ -t 15.309304899 -s 4 -d 0 -p DSR -e 68 -c 2 -a 0 -i 19 -k RTR 
- -t 15.309304899 -s 4 -d 0 -p DSR -e 68 -c 2 -a 0 -i 19 -k RTR
h -t 15.309304899 -s 4 -d 0 -p DSR -e 68 -c 2 -a 0 -i 19 -k RTR
+ -t 15.310701937 -s 7 -d -1 -p cbr -e 512 -c 2 -a 0 -i 42 -k AGT 
- -t 15.310701937 -s 7 -d -1 -p cbr -e 512 -c 2 -a 0 -i 42 -k AGT
h -t 15.310701937 -s 7 -d -1 -p cbr -e 512 -c 2 -a 0 -i 42 -k AGT
+ -t 15.310701937 -s 7 -d 11 -p cbr -e 532 -c 2 -a 0 -i 42 -k RTR 
- -t 15.310701937 -s 7 -d 11 -p cbr -e 532 -c 2 -a 0 -i 42 -k RTR
h -t 15.310701937 -s 7 -d 11 -p cbr -e 532 -c 2 -a 0 -i 42 -k RTR
+ -t 15.311367566 -s 4 -d 0 -p DSR -e 68 -c 2 -a 0 -i 16 -k RTR 
- -t 15.311367566 -s 4 -d 0 -p DSR -e 68 -c 2 -a 0 -i 16 -k RTR
h -t 15.311367566 -s 4 -d 0 -p DSR -e 68 -c 2 -a 0 -i 16 -k RTR
r -t 15.317142135 -s 11 -d 11 -p cbr -e 512 -c 2 -a 0 -i 42 -k AGT
+ -t 15.324618786 -s 10 -d 4 -p DSR -e 68 -c 2 -a 0 -i 22 -k RTR 
- -t 15.324618786 -s 10 -d 4 -p DSR -e 68 -c 2 -a 0 -i 22 -k RTR
h -t 15.324618786 -s 10 -d 4 -p DSR -e 68 -c 2 -a 0 -i 22 -k RTR
+ -t 15.326900786 -s 4 -d 0 -p DSR -e 68 -c 2 -a 0 -i 22 -k RTR 
- -t 15.326900786 -s 4 -d 0 -p DSR -e 68 -c 2 -a 0 -i 22 -k RTR
h -t 15.326900786 -s 4 -d 0 -p DSR -e 68 -c 2 -a 0 -i 22 -k RTR
+ -t 15.331383479 -s 8 -d 4 -p DSR -e 64 -c 2 -a 0 -i 35 -k RTR 
- -t 15.331383479 -s 8 -d 4 -p DSR -e 64 -c 2 -a 0 -i 35 -k RTR
h -t 15.331383479 -s 8 -d 4 -p DSR -e 64 -c 2 -a 0 -i 35 -k RTR
+ -t 15.333566145 -s 8 -d 4 -p DSR -e 68 -c 2 -a 0 -i 20 -k RTR 
- -t 15.333566145 -s 8 -d 4 -p DSR -e 68 -c 2 -a 0 -i 20 -k RTR
h -t 15.333566145 -s 8 -d 4 -p DSR -e 68 -c 2 -a 0 -i 20 -k RTR
+ -t 15.335576381 -s 4 -d 3 -p DSR -e 64 -c 2 -a 0 -i 35 -k RTR 
- -t 15.335576381 -s 4 -d 3 -p DSR -e 64 -c 2 -a 0 -i 35 -k RTR
h -t 15.335576381 -s 4 -d 3 -p DSR -e 64 -c 2 -a 0 -i 35 -k RTR
+ -t 15.337759363 -s 4 -d 0 -p DSR -e 68 -c 2 -a 0 -i 20 -k RTR 
- -t 15.337759363 -s 4 -d 0 -p DSR -e 68 -c 2 -a 0 -i 20 -k RTR
h -t 15.337759363 -s 4 -d 0 -p DSR -e 68 -c 2 -a 0 -i 20 -k RTR
+ -t 15.352878501 -s 4 -d 10 -p cbr -e 556 -c 2 -a 0 -i 32 -k RTR 
- -t 15.352878501 -s 4 -d 10 -p cbr -e 556 -c 2 -a 0 -i 32 -k RTR
h -t 15.352878501 -s 4 -d 10 -p cbr -e 556 -c 2 -a 0 -i 32 -k RTR
+ -t 15.359225483 -s 4 -d 10 -p cbr -e 556 -c 2 -a 0 -i 41 -k RTR 
- -t 15.359225483 -s 4 -d 10 -p cbr -e 556 -c 2 -a 0 -i 41 -k RTR
h -t 15.359225483 -s 4 -d 10 -p cbr -e 556 -c 2 -a 0 -i 41 -k RTR
+ -t 15.365231483 -s 10 -d 18 -p cbr -e 556 -c 2 -a 0 -i 32 -k RTR 
- -t 15.365231483 -s 10 -d 18 -p cbr -e 556 -c 2 -a 0 -i 32 -k RTR
h -t 15.365231483 -s 10 -d 18 -p cbr -e 556 -c 2 -a 0 -i 32 -k RTR
+ -t 15.367004736 -s 3 -d -1 -p cbr -e 512 -c 2 -a 0 -i 43 -k AGT 
- -t 15.367004736 -s 3 -d -1 -p cbr -e 512 -c 2 -a 0 -i 43 -k AGT
h -t 15.367004736 -s 3 -d -1 -p cbr -e 512 -c 2 -a 0 -i 43 -k AGT
+ -t 15.367004736 -s 3 -d 4 -p cbr -e 532 -c 2 -a 0 -i 43 -k RTR 
- -t 15.367004736 -s 3 -d 4 -p cbr -e 532 -c 2 -a 0 -i 43 -k RTR
h -t 15.367004736 -s 3 -d 4 -p cbr -e 532 -c 2 -a 0 -i 43 -k RTR
r -t 15.371157719 -s 18 -d 18 -p cbr -e 512 -c 2 -a 0 -i 32 -k AGT
+ -t 15.377257386 -s 4 -d 10 -p cbr -e 532 -c 2 -a 0 -i 43 -k RTR 
- -t 15.377257386 -s 4 -d 10 -p cbr -e 532 -c 2 -a 0 -i 43 -k RTR
h -t 15.377257386 -s 4 -d 10 -p cbr -e 532 -c 2 -a 0 -i 43 -k RTR
+ -t 15.383223386 -s 10 -d 18 -p cbr -e 556 -c 2 -a 0 -i 41 -k RTR 
- -t 15.383223386 -s 10 -d 18 -p cbr -e 556 -c 2 -a 0 -i 41 -k RTR
h -t 15.383223386 -s 10 -d 18 -p cbr -e 556 -c 2 -a 0 -i 41 -k RTR
+ -t 15.389158052 -s 10 -d 18 -p cbr -e 532 -c 2 -a 0 -i 43 -k RTR 
- -t 15.389158052 -s 10 -d 18 -p cbr -e 532 -c 2 -a 0 -i 43 -k RTR
h -t 15.389158052 -s 10 -d 18 -p cbr -e 532 -c 2 -a 0 -i 43 -k RTR
r -t 15.395344288 -s 18 -d 18 -p cbr -e 512 -c 2 -a 0 -i 41 -k AGT
+ -t 15.400188757 -s 7 -d -1 -p cbr -e 512 -c 2 -a 0 -i 44 -k AGT 
- -t 15.400188757 -s 7 -d -1 -p cbr -e 512 -c 2 -a 0 -i 44 -k AGT
h -t 15.400188757 -s 7 -d -1 -p cbr -e 512 -c 2 -a 0 -i 44 -k AGT
+ -t 15.400188757 -s 7 -d 11 -p cbr -e 532 -c 2 -a 0 -i 44 -k RTR 
- -t 15.400188757 -s 7 -d 11 -p cbr -e 532 -c 2 -a 0 -i 44 -k RTR
h -t 15.400188757 -s 7 -d 11 -p cbr -e 532 -c 2 -a 0 -i 44 -k RTR
r -t 15.401079270 -s 18 -d 18 -p cbr -e 512 -c 2 -a 0 -i 43 -k AGT
+ -t 15.403286513 -s 0 -d -1 -p cbr -e 512 -c 2 -a 0 -i 45 -k AGT 
- -t 15.403286513 -s 0 -d -1 -p cbr -e 512 -c 2 -a 0 -i 45 -k AGT