n -t * -s 0  -x 100 -y 100 -Z 0 -z 30  -v circle -c black
n -t * -s 1  -x 300 -y 100 -Z 0 -z 30  -v circle -c black
n -t * -s 2  -x 500 -y 100 -Z 0 -z 30  -v circle -c black
n -t * -s 3  -x 100 -y 200 -Z 0 -z 30  -v circle -c black
n -t * -s 4  -x 300 -y 200 -Z 0 -z 30  -v circle -c black
n -t * -s 5  -x 500 -y 200 -Z 0 -z 30  -v circle -c black
n -t * -s 6  -x 100 -y 300 -Z 0 -z 30  -v circle -c black
n -t * -s 7  -x 300 -y 300 -Z 0 -z 30  -v circle -c black
n -t * -s 8  -x 500 -y 300 -Z 0 -z 30  -v circle -c black
n -t * -s 9  -x 100 -y 500 -Z 0 -z 30  -v circle -c black
n -t * -s 10  -x 300 -y 500 -Z 0 -z 30  -v circle -c black
n -t * -s 11  -x 500 -y 500 -Z 0 -z 30  -v circle -c black
V -t * -v 1.0a5 -a 0
W -t * -x 500 -y 500
A -t * -n 1 -p 0 -o 0xffffffff -c 31 -a 1
A -t * -h 1 -m 2147483647 -s 0
+ -t 15.000000000 -s 0 -d -1 -p cbr -e 512 -c 2 -a 0 -i 0 -k AGT 
- -t 15.000000000 -s 0 -d -1 -p cbr -e 512 -c 2 -a 0 -i 0 -k AGT
h -t 15.000000000 -s 0 -d -1 -p cbr -e 512 -c 2 -a 0 -i 0 -k AGT
+ -t 15.000000000 -s 1 -d -1 -p cbr -e 512 -c 2 -a 0 -i 2 -k AGT 
- -t 15.000000000 -s 1 -d -1 -p cbr -e 512 -c 2 -a 0 -i 2 -k AGT
h -t 15.000000000 -s 1 -d -1 -p cbr -e 512 -c 2 -a 0 -i 2 -k AGT
+ -t 15.000000000 -s 5 -d -1 -p cbr -e 512 -c 2 -a 0 -i 4 -k AGT 
- -t 15.000000000 -s 5 -d -1 -p cbr -e 512 -c 2 -a 0 -i 4 -k AGT
h -t 15.000000000 -s 5 -d -1 -p cbr -e 512 -c 2 -a 0 -i 4 -k AGT
+ -t 15.000185341 -s 1 -d -1 -p DSR -e 32 -c 2 -a 0 -i 3 -k RTR 
- -t 15.000185341 -s 1 -d -1 -p DSR -e 32 -c 2 -a 0 -i 3 -k RTR
h -t 15.000185341 -s 1 -d -1 -p DSR -e 32 -c 2 -a 0 -i 3 -k RTR
+ -t 15.001189323 -s 5 -d -1 -p DSR -e 32 -c 2 -a 0 -i 5 -k RTR 
- -t 15.001189323 -s 5 -d -1 -p DSR -e 32 -c 2 -a 0 -i 5 -k RTR
h -t 15.001189323 -s 5 -d -1 -p DSR -e 32 -c 2 -a 0 -i 5 -k RTR
+ -t 15.003166890 -s 0 -d -1 -p DSR -e 32 -c 2 -a 0 -i 1 -k RTR 
- -t 15.003166890 -s 0 -d -1 -p DSR -e 32 -c 2 -a 0 -i 1 -k RTR
h -t 15.003166890 -s 0 -d -1 -p DSR -e 32 -c 2 -a 0 -i 1 -k RTR
+ -t 15.045556081 -s 1 -d -1 -p DSR -e 32 -c 2 -a 0 -i 8 -k RTR 
- -t 15.045556081 -s 1 -d -1 -p DSR -e 32 -c 2 -a 0 -i 8 -k RTR
h -t 15.045556081 -s 1 -d -1 -p DSR -e 32 -c 2 -a 0 -i 8 -k RTR
+ -t 15.048311349 -s 7 -d -1 -p DSR -e 48 -c 2 -a 0 -i 8 -k RTR 
- -t 15.048311349 -s 7 -d -1 -p DSR -e 48 -c 2 -a 0 -i 8 -k RTR
h -t 15.048311349 -s 7 -d -1 -p DSR -e 48 -c 2 -a 0 -i 8 -k RTR
+ -t 15.050169191 -s 10 -d 7 -p DSR -e 52 -c 2 -a 0 -i 9 -k RTR 
- -t 15.050169191 -s 10 -d 7 -p DSR -e 52 -c 2 -a 0 -i 9 -k RTR
h -t 15.050169191 -s 10 -d 7 -p DSR -e 52 -c 2 -a 0 -i 9 -k RTR
+ -t 15.050623485 -s 8 -d -1 -p DSR -e 68 -c 2 -a 0 -i 8 -k RTR 
- -t 15.050623485 -s 8 -d -1 -p DSR -e 68 -c 2 -a 0 -i 8 -k RTR
h -t 15.050623485 -s 8 -d -1 -p DSR -e 68 -c 2 -a 0 -i 8 -k RTR
+ -t 15.050745134 -s 6 -d -1 -p DSR -e 68 -c 2 -a 0 -i 8 -k RTR 
- -t 15.050745134 -s 6 -d -1 -p DSR -e 68 -c 2 -a 0 -i 8 -k RTR
h -t 15.050745134 -s 6 -d -1 -p DSR -e 68 -c 2 -a 0 -i 8 -k RTR
+ -t 15.050958581 -s 0 -d -1 -p DSR -e 48 -c 2 -a 0 -i 8 -k RTR 
- -t 15.050958581 -s 0 -d -1 -p DSR -e 48 -c 2 -a 0 -i 8 -k RTR
h -t 15.050958581 -s 0 -d -1 -p DSR -e 48 -c 2 -a 0 -i 8 -k RTR
+ -t 15.051647003 -s 2 -d -1 -p DSR -e 48 -c 2 -a 0 -i 8 -k RTR 
- -t 15.051647003 -s 2 -d -1 -p DSR -e 48 -c 2 -a 0 -i 8 -k RTR
h -t 15.051647003 -s 2 -d -1 -p DSR -e 48 -c 2 -a 0 -i 8 -k RTR
+ -t 15.051824919 -s 0 -d -1 -p DSR -e 32 -c 2 -a 0 -i 7 -k RTR 
- -t 15.051824919 -s 0 -d -1 -p DSR -e 32 -c 2 -a 0 -i 7 -k RTR
h -t 15.051824919 -s 0 -d -1 -p DSR -e 32 -c 2 -a 0 -i 7 -k RTR
+ -t 15.051859191 -s 7 -d 1 -p DSR -e 52 -c 2 -a 0 -i 9 -k RTR 
- -t 15.051859191 -s 7 -d 1 -p DSR -e 52 -c 2 -a 0 -i 9 -k RTR
h -t 15.051859191 -s 7 -d 1 -p DSR -e 52 -c 2 -a 0 -i 9 -k RTR
+ -t 15.052010744 -s 5 -d -1 -p DSR -e 48 -c 2 -a 0 -i 8 -k RTR 
- -t 15.052010744 -s 5 -d -1 -p DSR -e 48 -c 2 -a 0 -i 8 -k RTR
h -t 15.052010744 -s 5 -d -1 -p DSR -e 48 -c 2 -a 0 -i 8 -k RTR
+ -t 15.052882937 -s 4 -d -1 -p DSR -e 48 -c 2 -a 0 -i 8 -k RTR 
- -t 15.052882937 -s 4 -d -1 -p DSR -e 48 -c 2 -a 0 -i 8 -k RTR
h -t 15.052882937 -s 4 -d -1 -p DSR -e 48 -c 2 -a 0 -i 8 -k RTR
+ -t 15.053334133 -s 11 -d 8 -p DSR -e 64 -c 2 -a 0 -i 10 -k RTR 
- -t 15.053334133 -s 11 -d 8 -p DSR -e 64 -c 2 -a 0 -i 10 -k RTR
h -t 15.053334133 -s 11 -d 8 -p DSR -e 64 -c 2 -a 0 -i 10 -k RTR
+ -t 15.053659555 -s 3 -d -1 -p DSR -e 48 -c 2 -a 0 -i 8 -k RTR 
- -t 15.053659555 -s 3 -d -1 -p DSR -e 48 -c 2 -a 0 -i 8 -k RTR
h -t 15.053659555 -s 3 -d -1 -p DSR -e 48 -c 2 -a 0 -i 8 -k RTR
+ -t 15.057705467 -s 1 -d 7 -p cbr -e 552 -c 2 -a 0 -i 2 -k RTR 
- -t 15.057705467 -s 1 -d 7 -p cbr -e 552 -c 2 -a 0 -i 2 -k RTR
h -t 15.057705467 -s 1 -d 7 -p cbr -e 552 -c 2 -a 0 -i 2 -k RTR
+ -t 15.059982410 -s 1 -d 0 -p DSR -e 52 -c 2 -a 0 -i 11 -k RTR 
- -t 15.059982410 -s 1 -d 0 -p DSR -e 52 -c 2 -a 0 -i 11 -k RTR
h -t 15.059982410 -s 1 -d 0 -p DSR -e 52 -c 2 -a 0 -i 11 -k RTR
+ -t 15.065697882 -s 6 -d -1 -p DSR -e 48 -c 2 -a 0 -i 7 -k RTR 
- -t 15.065697882 -s 6 -d -1 -p DSR -e 48 -c 2 -a 0 -i 7 -k RTR
h -t 15.065697882 -s 6 -d -1 -p DSR -e 48 -c 2 -a 0 -i 7 -k RTR
+ -t 15.066066500 -s 3 -d -1 -p DSR -e 48 -c 2 -a 0 -i 7 -k RTR 
- -t 15.066066500 -s 3 -d -1 -p DSR -e 48 -c 2 -a 0 -i 7 -k RTR
h -t 15.066066500 -s 3 -d -1 -p DSR -e 48 -c 2 -a 0 -i 7 -k RTR
+ -t 15.067023370 -s 7 -d 10 -p cbr -e 552 -c 2 -a 0 -i 2 -k RTR 
- -t 15.067023370 -s 7 -d 10 -p cbr -e 552 -c 2 -a 0 -i 2 -k RTR
h -t 15.067023370 -s 7 -d 10 -p cbr -e 552 -c 2 -a 0 -i 2 -k RTR
+ -t 15.068898036 -s 0 -d 1 -p cbr -e 556 -c 2 -a 0 -i 0 -k RTR 
- -t 15.068898036 -s 0 -d 1 -p cbr -e 556 -c 2 -a 0 -i 0 -k RTR
h -t 15.068898036 -s 0 -d 1 -p cbr -e 556 -c 2 -a 0 -i 0 -k RTR
+ -t 15.073787652 -s 5 -d -1 -p DSR -e 32 -c 2 -a 0 -i 12 -k RTR 
- -t 15.073787652 -s 5 -d -1 -p DSR -e 32 -c 2 -a 0 -i 12 -k RTR
h -t 15.073787652 -s 5 -d -1 -p DSR -e 32 -c 2 -a 0 -i 12 -k RTR
+ -t 15.074198064 -s 5 -d -1 -p cbr -e 512 -c 2 -a 0 -i 13 -k AGT 
- -t 15.074198064 -s 5 -d -1 -p cbr -e 512 -c 2 -a 0 -i 13 -k AGT
h -t 15.074198064 -s 5 -d -1 -p cbr -e 512 -c 2 -a 0 -i 13 -k AGT
+ -t 15.074904036 -s 1 -d 7 -p cbr -e 556 -c 2 -a 0 -i 0 -k RTR 
- -t 15.074904036 -s 1 -d 7 -p cbr -e 556 -c 2 -a 0 -i 0 -k RTR
h -t 15.074904036 -s 1 -d 7 -p cbr -e 556 -c 2 -a 0 -i 0 -k RTR
r -t 15.080908312 -s 10 -d 10 -p cbr -e 512 -c 2 -a 0 -i 2 -k AGT
+ -t 15.082637922 -s 9 -d 6 -p DSR -e 64 -c 2 -a 0 -i 15 -k RTR 
- -t 15.082637922 -s 9 -d 6 -p DSR -e 64 -c 2 -a 0 -i 15 -k RTR
h -t 15.082637922 -s 9 -d 6 -p DSR -e 64 -c 2 -a 0 -i 15 -k RTR
+ -t 15.083588255 -s 4 -d 3 -p DSR -e 64 -c 2 -a 0 -i 16 -k RTR 
- -t 15.083588255 -s 4 -d 3 -p DSR -e 64 -c 2 -a 0 -i 16 -k RTR
h -t 15.083588255 -s 4 -d 3 -p DSR -e 64 -c 2 -a 0 -i 16 -k RTR
+ -t 15.083588334 -s 7 -d 3 -p DSR -e 56 -c 2 -a 0 -i 17 -k RTR 
- -t 15.083588334 -s 7 -d 3 -p DSR -e 56 -c 2 -a 0 -i 17 -k RTR
h -t 15.083588334 -s 7 -d 3 -p DSR -e 56 -c 2 -a 0 -i 17 -k RTR
+ -t 15.085240570 -s 3 -d 0 -p DSR -e 56 -c 2 -a 0 -i 17 -k RTR 
- -t 15.085240570 -s 3 -d 0 -p DSR -e 56 -c 2 -a 0 -i 17 -k RTR
h -t 15.085240570 -s 3 -d 0 -p DSR -e 56 -c 2 -a 0 -i 17 -k RTR
+ -t 15.087291237 -s 3 -d 0 -p DSR -e 64 -c 2 -a 0 -i 16 -k RTR 
- -t 15.087291237 -s 3 -d 0 -p DSR -e 64 -c 2 -a 0 -i 16 -k RTR
h -t 15.087291237 -s 3 -d 0 -p DSR -e 64 -c 2 -a 0 -i 16 -k RTR
+ -t 15.093277982 -s 7 -d 10 -p cbr -e 556 -c 2 -a 0 -i 0 -k RTR 
- -t 15.093277982 -s 7 -d 10 -p cbr -e 556 -c 2 -a 0 -i 0 -k RTR
h -t 15.093277982 -s 7 -d 10 -p cbr -e 556 -c 2 -a 0 -i 0 -k RTR
+ -t 15.095897142 -s 4 -d -1 -p DSR -e 48 -c 2 -a 0 -i 12 -k RTR 
- -t 15.095897142 -s 4 -d -1 -p DSR -e 48 -c 2 -a 0 -i 12 -k RTR
h -t 15.095897142 -s 4 -d -1 -p DSR -e 48 -c 2 -a 0 -i 12 -k RTR
+ -t 15.099150693 -s 2 -d -1 -p DSR -e 48 -c 2 -a 0 -i 12 -k RTR 
- -t 15.099150693 -s 2 -d -1 -p DSR -e 48 -c 2 -a 0 -i 12 -k RTR
h -t 15.099150693 -s 2 -d -1 -p DSR -e 48 -c 2 -a 0 -i 12 -k RTR
+ -t 15.099468063 -s 8 -d -1 -p DSR -e 48 -c 2 -a 0 -i 12 -k RTR 
- -t 15.099468063 -s 8 -d -1 -p DSR -e 48 -c 2 -a 0 -i 12 -k RTR
h -t 15.099468063 -s 8 -d -1 -p DSR -e 48 -c 2 -a 0 -i 12 -k RTR
+ -t 15.100150832 -s 1 -d -1 -p DSR -e 48 -c 2 -a 0 -i 12 -k RTR 
- -t 15.100150832 -s 1 -d -1 -p DSR -e 48 -c 2 -a 0 -i 12 -k RTR
h -t 15.100150832 -s 1 -d -1 -p DSR -e 48 -c 2 -a 0 -i 12 -k RTR
r -t 15.100327473 -s 10 -d 10 -p cbr -e 512 -c 2 -a 0 -i 0 -k AGT
+ -t 15.100591288 -s 7 -d -1 -p DSR -e 48 -c 2 -a 0 -i 12 -k RTR 
- -t 15.100591288 -s 7 -d -1 -p DSR -e 48 -c 2 -a 0 -i 12 -k RTR
h -t 15.100591288 -s 7 -d -1 -p DSR -e 48 -c 2 -a 0 -i 12 -k RTR
+ -t 15.103093121 -s 9 -d 6 -p DSR -e 56 -c 2 -a 0 -i 20 -k RTR 
- -t 15.103093121 -s 9 -d 6 -p DSR -e 56 -c 2 -a 0 -i 20 -k RTR
h -t 15.103093121 -s 9 -d 6 -p DSR -e 56 -c 2 -a 0 -i 20 -k RTR
+ -t 15.104811056 -s 1 -d -1 -p cbr -e 512 -c 2 -a 0 -i 22 -k AGT 
- -t 15.104811056 -s 1 -d -1 -p cbr -e 512 -c 2 -a 0 -i 22 -k AGT
h -t 15.104811056 -s 1 -d -1 -p cbr -e 512 -c 2 -a 0 -i 22 -k AGT
+ -t 15.104811056 -s 1 -d 7 -p cbr -e 552 -c 2 -a 0 -i 22 -k RTR 
- -t 15.104811056 -s 1 -d 7 -p cbr -e 552 -c 2 -a 0 -i 22 -k RTR
h -t 15.104811056 -s 1 -d 7 -p cbr -e 552 -c 2 -a 0 -i 22 -k RTR
+ -t 15.105323162 -s 6 -d 7 -p DSR -e 52 -c 2 -a 0 -i 21 -k RTR 
- -t 15.105323162 -s 6 -d 7 -p DSR -e 52 -c 2 -a 0 -i 21 -k RTR
h -t 15.105323162 -s 6 -d 7 -p DSR -e 52 -c 2 -a 0 -i 21 -k RTR
+ -t 15.109078636 -s 3 -d -1 -p DSR -e 68 -c 2 -a 0 -i 12 -k RTR 
- -t 15.109078636 -s 3 -d -1 -p DSR -e 68 -c 2 -a 0 -i 12 -k RTR
h -t 15.109078636 -s 3 -d -1 -p DSR -e 68 -c 2 -a 0 -i 12 -k RTR
+ -t 15.109605532 -s 10 -d -1 -p DSR -e 68 -c 2 -a 0 -i 12 -k RTR 
- -t 15.109605532 -s 10 -d -1 -p DSR -e 68 -c 2 -a 0 -i 12 -k RTR
h -t 15.109605532 -s 10 -d -1 -p DSR -e 68 -c 2 -a 0 -i 12 -k RTR
+ -t 15.110533787 -s 7 -d 10 -p cbr -e 552 -c 2 -a 0 -i 22 -k RTR 
- -t 15.110533787 -s 7 -d 10 -p cbr -e 552 -c 2 -a 0 -i 22 -k RTR
h -t 15.110533787 -s 7 -d 10 -p cbr -e 552 -c 2 -a 0 -i 22 -k RTR
+ -t 15.112223851 -s 0 -d -1 -p DSR -e 68 -c 2 -a 0 -i 12 -k RTR 
- -t 15.112223851 -s 0 -d -1 -p DSR -e 68 -c 2 -a 0 -i 12 -k RTR
h -t 15.112223851 -s 0 -d -1 -p DSR -e 68 -c 2 -a 0 -i 12 -k RTR
r -t 15.119564611 -s 10 -d 10 -p cbr -e 512 -c 2 -a 0 -i 22 -k AGT
+ -t 15.121269278 -s 9 -d 10 -p DSR -e 64 -c 2 -a 0 -i 24 -k RTR 
- -t 15.121269278 -s 9 -d 10 -p DSR -e 64 -c 2 -a 0 -i 24 -k RTR
h -t 15.121269278 -s 9 -d 10 -p DSR -e 64 -c 2 -a 0 -i 24 -k RTR
+ -t 15.121590877 -s 6 -d 4 -p DSR -e 52 -c 2 -a 0 -i 23 -k RTR 
- -t 15.121590877 -s 6 -d 4 -p DSR -e 52 -c 2 -a 0 -i 23 -k RTR
h -t 15.121590877 -s 6 -d 4 -p DSR -e 52 -c 2 -a 0 -i 23 -k RTR
+ -t 15.124396769 -s 7 -d 5 -p DSR -e 52 -c 2 -a 0 -i 21 -k RTR 
- -t 15.124396769 -s 7 -d 5 -p DSR -e 52 -c 2 -a 0 -i 21 -k RTR
h -t 15.124396769 -s 7 -d 5 -p DSR -e 52 -c 2 -a 0 -i 21 -k RTR
+ -t 15.127998761 -s 6 -d 0 -p DSR -e 60 -c 2 -a 0 -i 25 -k RTR 
- -t 15.127998761 -s 6 -d 0 -p DSR -e 60 -c 2 -a 0 -i 25 -k RTR
h -t 15.127998761 -s 6 -d 0 -p DSR -e 60 -c 2 -a 0 -i 25 -k RTR
+ -t 15.129651417 -s 4 -d 5 -p DSR -e 52 -c 2 -a 0 -i 23 -k RTR 
- -t 15.129651417 -s 4 -d 5 -p DSR -e 52 -c 2 -a 0 -i 23 -k RTR
h -t 15.129651417 -s 4 -d 5 -p DSR -e 52 -c 2 -a 0 -i 23 -k RTR
+ -t 15.129811255 -s 11 -d -1 -p DSR -e 92 -c 2 -a 0 -i 12 -k RTR 
- -t 15.129811255 -s 11 -d -1 -p DSR -e 92 -c 2 -a 0 -i 12 -k RTR
h -t 15.129811255 -s 11 -d -1 -p DSR -e 92 -c 2 -a 0 -i 12 -k RTR
+ -t 15.132486750 -s 5 -d 4 -p cbr -e 552 -c 2 -a 0 -i 4 -k RTR 
- -t 15.132486750 -s 5 -d 4 -p cbr -e 552 -c 2 -a 0 -i 4 -k RTR
h -t 15.132486750 -s 5 -d 4 -p cbr -e 552 -c 2 -a 0 -i 4 -k RTR
+ -t 15.133581485 -s 6 -d 3 -p DSR -e 60 -c 2 -a 0 -i 26 -k RTR 
- -t 15.133581485 -s 6 -d 3 -p DSR -e 60 -c 2 -a 0 -i 26 -k RTR
h -t 15.133581485 -s 6 -d 3 -p DSR -e 60 -c 2 -a 0 -i 26 -k RTR
+ -t 15.136022132 -s 0 -d -1 -p cbr -e 512 -c 2 -a 0 -i 27 -k AGT 
- -t 15.136022132 -s 0 -d -1 -p cbr -e 512 -c 2 -a 0 -i 27 -k AGT
h -t 15.136022132 -s 0 -d -1 -p cbr -e 512 -c 2 -a 0 -i 27 -k AGT
+ -t 15.136022132 -s 0 -d 1 -p cbr -e 556 -c 2 -a 0 -i 27 -k RTR 
- -t 15.136022132 -s 0 -d 1 -p cbr -e 556 -c 2 -a 0 -i 27 -k RTR
h -t 15.136022132 -s 0 -d 1 -p cbr -e 556 -c 2 -a 0 -i 27 -k RTR
+ -t 15.140375732 -s 4 -d 6 -p cbr -e 552 -c 2 -a 0 -i 4 -k RTR 
- -t 15.140375732 -s 4 -d 6 -p cbr -e 552 -c 2 -a 0 -i 4 -k RTR
h -t 15.140375732 -s 4 -d 6 -p cbr -e 552 -c 2 -a 0 -i 4 -k RTR
+ -t 15.146432439 -s 1 -d 7 -p cbr -e 556 -c 2 -a 0 -i 27 -k RTR 
- -t 15.146432439 -s 1 -d 7 -p cbr -e 556 -c 2 -a 0 -i 27 -k RTR
h -t 15.146432439 -s 1 -d 7 -p cbr -e 556 -c 2 -a 0 -i 27 -k RTR
+ -t 15.150172087 -s 5 -d -1 -p cbr -e 512 -c 2 -a 0 -i 28 -k AGT 
- -t 15.150172087 -s 5 -d -1 -p cbr -e 512 -c 2 -a 0 -i 28 -k AGT
h -t 15.150172087 -s 5 -d -1 -p cbr -e 512 -c 2 -a 0 -i 28 -k AGT
+ -t 15.150172087 -s 5 -d 4 -p cbr -e 552 -c 2 -a 0 -i 28 -k RTR 
- -t 15.150172087 -s 5 -d 4 -p cbr -e 552 -c 2 -a 0 -i 28 -k RTR
h -t 15.150172087 -s 5 -d 4 -p cbr -e 552 -c 2 -a 0 -i 28 -k RTR
+ -t 15.152438439 -s 7 -d 10 -p cbr -e 556 -c 2 -a 0 -i 27 -k RTR 
- -t 15.152438439 -s 7 -d 10 -p cbr -e 556 -c 2 -a 0 -i 27 -k RTR
h -t 15.152438439 -s 7 -d 10 -p cbr -e 556 -c 2 -a 0 -i 27 -k RTR
r -t 15.158453009 -s 6 -d 6 -p cbr -e 512 -c 2 -a 0 -i 4 -k AGT
+ -t 15.160631009 -s 0 -d 1 -p DSR -e 60 -c 2 -a 0 -i 25 -k RTR 
- -t 15.160631009 -s 0 -d 1 -p DSR -e 60 -c 2 -a 0 -i 25 -k RTR
h -t 15.160631009 -s 0 -d 1 -p DSR -e 60 -c 2 -a 0 -i 25 -k RTR
+ -t 15.162486750 -s 5 -d 4 -p cbr -e 552 -c 2 -a 0 -i 13 -k RTR 
- -t 15.162486750 -s 5 -d 4 -p cbr -e 552 -c 2 -a 0 -i 13 -k RTR
h -t 15.162486750 -s 5 -d 4 -p cbr -e 552 -c 2 -a 0 -i 13 -k RTR
+ -t 15.162869009 -s 1 -d 5 -p DSR -e 60 -c 2 -a 0 -i 25 -k RTR 
- -t 15.162869009 -s 1 -d 5 -p DSR -e 60 -c 2 -a 0 -i 25 -k RTR
h -t 15.162869009 -s 1 -d 5 -p DSR -e 60 -c 2 -a 0 -i 25 -k RTR
r -t 15.170873990 -s 10 -d 10 -p cbr -e 512 -c 2 -a 0 -i 27 -k AGT
+ -t 15.177173192 -s 4 -d 6 -p cbr -e 552 -c 2 -a 0 -i 28 -k RTR 
- -t 15.177173192 -s 4 -d 6 -p cbr -e 552 -c 2 -a 0 -i 28 -k RTR
h -t 15.177173192 -s 4 -d 6 -p cbr -e 552 -c 2 -a 0 -i 28 -k RTR
+ -t 15.179240900 -s 3 -d 7 -p DSR -e 60 -c 2 -a 0 -i 26 -k RTR 
- -t 15.179240900 -s 3 -d 7 -p DSR -e 60 -c 2 -a 0 -i 26 -k RTR
h -t 15.179240900 -s 3 -d 7 -p DSR -e 60 -c 2 -a 0 -i 26 -k RTR
+ -t 15.181179136 -s 7 -d 5 -p DSR -e 60 -c 2 -a 0 -i 26 -k RTR 
- -t 15.181179136 -s 7 -d 5 -p DSR -e 60 -c 2 -a 0 -i 26 -k RTR
h -t 15.181179136 -s 7 -d 5 -p DSR -e 60 -c 2 -a 0 -i 26 -k RTR
r -t 15.189192275 -s 6 -d 6 -p cbr -e 512 -c 2 -a 0 -i 28 -k AGT
+ -t 15.195471649 -s 4 -d 6 -p cbr -e 552 -c 2 -a 0 -i 13 -k RTR 
- -t 15.195471649 -s 4 -d 6 -p cbr -e 552 -c 2 -a 0 -i 13 -k RTR
h -t 15.195471649 -s 4 -d 6 -p cbr -e 552 -c 2 -a 0 -i 13 -k RTR
r -t 15.201345885 -s 6 -d 6 -p cbr -e 512 -c 2 -a 0 -i 13 -k AGT
+ -t 15.203646342 -s 6 -d 7 -p DSR -e 64 -c 2 -a 0 -i 15 -k RTR 
- -t 15.203646342 -s 6 -d 7 -p DSR -e 64 -c 2 -a 0 -i 15 -k RTR
h -t 15.203646342 -s 6 -d 7 -p DSR -e 64 -c 2 -a 0 -i 15 -k RTR
+ -t 15.206017008 -s 10 -d 7 -p DSR -e 64 -c 2 -a 0 -i 24 -k RTR 
- -t 15.206017008 -s 10 -d 7 -p DSR -e 64 -c 2 -a 0 -i 24 -k RTR
h -t 15.206017008 -s 10 -d 7 -p DSR -e 64 -c 2 -a 0 -i 24 -k RTR
+ -t 15.207943675 -s 6 -d 0 -p DSR -e 56 -c 2 -a 0 -i 20 -k RTR 
- -t 15.207943675 -s 6 -d 0 -p DSR -e 56 -c 2 -a 0 -i 20 -k RTR
h -t 15.207943675 -s 6 -d 0 -p DSR -e 56 -c 2 -a 0 -i 20 -k RTR
+ -t 15.210093675 -s 7 -d 1 -p DSR -e 64 -c 2 -a 0 -i 15 -k RTR 
- -t 15.210093675 -s 7 -d 1 -p DSR -e 64 -c 2 -a 0 -i 15 -k RTR
h -t 15.210093675 -s 7 -d 1 -p DSR -e 64 -c 2 -a 0 -i 15 -k RTR
+ -t 15.212133951 -s 7 -d 5 -p DSR -e 64 -c 2 -a 0 -i 24 -k RTR 
- -t 15.212133951 -s 7 -d 5 -p DSR -e 64 -c 2 -a 0 -i 24 -k RTR
h -t 15.212133951 -s 7 -d 5 -p DSR -e 64 -c 2 -a 0 -i 24 -k RTR
+ -t 15.217426554 -s 1 -d -1 -p cbr -e 512 -c 2 -a 0 -i 29 -k AGT 
- -t 15.217426554 -s 1 -d -1 -p cbr -e 512 -c 2 -a 0 -i 29 -k AGT
h -t 15.217426554 -s 1 -d -1 -p cbr -e 512 -c 2 -a 0 -i 29 -k AGT
+ -t 15.217426554 -s 1 -d 7 -p cbr -e 552 -c 2 -a 0 -i 29 -k RTR 
- -t 15.217426554 -s 1 -d 7 -p cbr -e 552 -c 2 -a 0 -i 29 -k RTR
h -t 15.217426554 -s 1 -d 7 -p cbr -e 552 -c 2 -a 0 -i 29 -k RTR
+ -t 15.223056554 -s 7 -d 10 -p cbr -e 552 -c 2 -a 0 -i 29 -k RTR 
- -t 15.223056554 -s 7 -d 10 -p cbr -e 552 -c 2 -a 0 -i 29 -k RTR
h -t 15.223056554 -s 7 -d 10 -p cbr -e 552 -c 2 -a 0 -i 29 -k RTR
r -t 15.231321535 -s 10 -d 10 -p cbr -e 512 -c 2 -a 0 -i 29 -k AGT
+ -t 15.235241811 -s 8 -d 7 -p DSR -e 64 -c 2 -a 0 -i 10 -k RTR 
- -t 15.235241811 -s 8 -d 7 -p DSR -e 64 -c 2 -a 0 -i 10 -k RTR
h -t 15.235241811 -s 8 -d 7 -p DSR -e 64 -c 2 -a 0 -i 10 -k RTR
+ -t 15.238875145 -s 7 -d 1 -p DSR -e 64 -c 2 -a 0 -i 10 -k RTR 
- -t 15.238875145 -s 7 -d 1 -p DSR -e 64 -c 2 -a 0 -i 10 -k RTR
h -t 15.238875145 -s 7 -d 1 -p DSR -e 64 -c 2 -a 0 -i 10 -k RTR
+ -t 15.257177894 -s 0 -d -1 -p cbr -e 512 -c 2 -a 0 -i 30 -k AGT 
- -t 15.257177894 -s 0 -d -1 -p cbr -e 512 -c 2 -a 0 -i 30 -k AGT
h -t 15.257177894 -s 0 -d -1 -p cbr -e 512 -c 2 -a 0 -i 30 -k AGT
+ -t 15.257177894 -s 0 -d 1 -p cbr -e 556 -c 2 -a 0 -i 30 -k RTR 
- -t 15.257177894 -s 0 -d 1 -p cbr -e 556 -c 2 -a 0 -i 30 -k RTR
h -t 15.257177894 -s 0 -d 1 -p cbr -e 556 -c 2 -a 0 -i 30 -k RTR
+ -t 15.263379894 -s 1 -d 7 -p cbr -e 556 -c 2 -a 0 -i 30 -k RTR 
- -t 15.263379894 -s 1 -d 7 -p cbr -e 556 -c 2 -a 0 -i 30 -k RTR
h -t 15.263379894 -s 1 -d 7 -p cbr -e 556 -c 2 -a 0 -i 30 -k RTR
+ -t 15.269305894 -s 7 -d 10 -p cbr -e 556 -c 2 -a 0 -i 30 -k RTR 
- -t 15.269305894 -s 7 -d 10 -p cbr -e 556 -c 2 -a 0 -i 30 -k RTR
h -t 15.269305894 -s 7 -d 10 -p cbr -e 556 -c 2 -a 0 -i 30 -k RTR
r -t 15.275591894 -s 10 -d 10 -p cbr -e 512 -c 2 -a 0 -i 30 -k AGT
+ -t 15.276517569 -s 5 -d -1 -p cbr -e 512 -c 2 -a 0 -i 31 -k AGT 
- -t 15.276517569 -s 5 -d -1 -p cbr -e 512 -c 2 -a 0 -i 31 -k AGT
h -t 15.276517569 -s 5 -d -1 -p cbr -e 512 -c 2 -a 0 -i 31 -k AGT
+ -t 15.276517569 -s 5 -d 4 -p cbr -e 532 -c 2 -a 0 -i 31 -k RTR 
- -t 15.276517569 -s 5 -d 4 -p cbr -e 532 -c 2 -a 0 -i 31 -k RTR
h -t 15.276517569 -s 5 -d 4 -p cbr -e 532 -c 2 -a 0 -i 31 -k RTR
+ -t 15.280183555 -s 1 -d -1 -p cbr -e 512 -c 2 -a 0 -i 32 -k AGT 
- -t 15.280183555 -s 1 -d -1 -p cbr -e 512 -c 2 -a 0 -i 32 -k AGT
h -t 15.280183555 -s 1 -d -1 -p cbr -e 512 -c 2 -a 0 -i 32 -k AGT
+ -t 15.280183555 -s 1 -d 7 -p cbr -e 532 -c 2 -a 0 -i 32 -k RTR 
- -t 15.280183555 -s 1 -d 7 -p cbr -e 532 -c 2 -a 0 -i 32 -k RTR
h -t 15.280183555 -s 1 -d 7 -p cbr -e 532 -c 2 -a 0 -i 32 -k RTR
+ -t 15.282387569 -s 4 -d 6 -p cbr -e 532 -c 2 -a 0 -i 31 -k RTR 
- -t 15.282387569 -s 4 -d 6 -p cbr -e 532 -c 2 -a 0 -i 31 -k RTR
h -t 15.282387569 -s 4 -d 6 -p cbr -e 532 -c 2 -a 0 -i 31 -k RTR
r -t 15.288561805 -s 6 -d 6 -p cbr -e 512 -c 2 -a 0 -i 31 -k AGT
+ -t 15.294660748 -s 7 -d 10 -p cbr -e 532 -c 2 -a 0 -i 32 -k RTR 
- -t 15.294660748 -s 7 -d 10 -p cbr -e 532 -c 2 -a 0 -i 32 -k RTR
h -t 15.294660748 -s 7 -d 10 -p cbr -e 532 -c 2 -a 0 -i 32 -k RTR
r -t 15.300894748 -s 10 -d 10 -p cbr -e 512 -c 2 -a 0 -i 32 -k AGT
+ -t 15.329980501 -s 0 -d -1 -p cbr -e 512 -c 2 -a 0 -i 33 -k AGT 
- -t 15.329980501 -s 0 -d -1 -p cbr -e 512 -c 2 -a 0 -i 33 -k AGT
h -t 15.329980501 -s 0 -d -1 -p cbr -e 512 -c 2 -a 0 -i 33 -k AGT
+ -t 15.329980501 -s 0 -d 1 -p cbr -e 532 -c 2 -a 0 -i 33 -k RTR 
- -t 15.329980501 -s 0 -d 1 -p cbr -e 532 -c 2 -a 0 -i 33 -k RTR
h -t 15.329980501 -s 0 -d 1 -p cbr -e 532 -c 2 -a 0 -i 33 -k RTR
+ -t 15.335650501 -s 1 -d 7 -p cbr -e 532 -c 2 -a 0 -i 33 -k RTR 
- -t 15.335650501 -s 1 -d 7 -p cbr -e 532 -c 2 -a 0 -i 33 -k RTR
h -t 15.335650501 -s 1 -d 7 -p cbr -e 532 -c 2 -a 0 -i 33 -k RTR
+ -t 15.341944501 -s 7 -d 10 -p cbr -e 532 -c 2 -a 0 -i 33 -k RTR 
- -t 15.341944501 -s 7 -d 10 -p cbr -e 532 -c 2 -a 0 -i 33 -k RTR
h -t 15.341944501 -s 7 -d 10 -p cbr -e 532 -c 2 -a 0 -i 33 -k RTR
r -t 15.347878501 -s 10 -d 10 -p cbr -e 512 -c 2 -a 0 -i 33 -k AGT
+ -t 15.348953683 -s 1 -d -1 -p cbr -e 512 -c 2 -a 0 -i 34 -k AGT 
- -t 15.348953683 -s 1 -d -1 -p cbr -e 512 -c 2 -a 0 -i 34 -k AGT
h -t 15.348953683 -s 1 -d -1 -p cbr -e 512 -c 2 -a 0 -i 34 -k AGT
+ -t 15.348953683 -s 1 -d 7 -p cbr -e 532 -c 2 -a 0 -i 34 -k RTR 
- -t 15.348953683 -s 1 -d 7 -p cbr -e 532 -c 2 -a 0 -i 34 -k RTR
h -t 15.348953683 -s 1 -d 7 -p cbr -e 532 -c 2 -a 0 -i 34 -k RTR
+ -t 15.354963683 -s 7 -d 10 -p cbr -e 532 -c 2 -a 0 -i 34 -k RTR 
- -t 15.354963683 -s 7 -d 10 -p cbr -e 532 -c 2 -a 0 -i 34 -k RTR
h -t 15.354963683 -s 7 -d 10 -p cbr -e 532 -c 2 -a 0 -i 34 -k RTR
r -t 15.361037683 -s 10 -d 10 -p cbr -e 512 -c 2 -a 0 -i 34 -k AGT
+ -t 15.389903456 -s 0 -d -1 -p cbr -e 512 -c 2 -a 0 -i 35 -k AGT 
- -t 15.389903456 -s 0 -d -1 -p cbr -e 512 -c 2 -a 0 -i 35 -k AGT
h -t 15.389903456 -s 0 -d -1 -p cbr -e 512 -c 2 -a 0 -i 35 -k AGT
+ -t 15.389903456 -s 0 -d 1 -p cbr -e 532 -c 2 -a 0 -i 35 -k RTR 
- -t 15.389903456 -s 0 -d 1 -p cbr -e 532 -c 2 -a 0 -i 35 -k RTR
h -t 15.389903456 -s 0 -d 1 -p cbr -e 532 -c 2 -a 0 -i 35 -k RTR
+ -t 15.395793456 -s 1 -d 7 -p cbr -e 532 -c 2 -a 0 -i 35 -k RTR 
- -t 15.395793456 -s 1 -d 7 -p cbr -e 532 -c 2 -a 0 -i 35 -k RTR
h -t 15.395793456 -s 1 -d 7 -p cbr -e 532 -c 2 -a 0 -i 35 -k RTR
+ -t 15.401587456 -s 7 -d 10 -p cbr -e 532 -c 2 -a 0 -i 35 -k RTR 
- -t 15.401587456 -s 7 -d 10 -p cbr -e 532 -c 2 -a 0 -i 35 -k RTR
h -t 15.401587456 -s 7 -d 10 -p cbr -e 532 -c 2 -a 0 -i 35 -k RTR
r -t 15.407801456 -s 10 -d 10 -p cbr -e 512 -c 2 -a 0 -i 35 -k AGT
+ -t 15.418019713 -s 5 -d -1 -p cbr -e 512 -c 2 -a 0 -i 36 -k AGT 
- -t 15.418019713 -s 5 -d -1 -p cbr -e 512 -c 2 -a 0 -i 36 -k AGT
h -t 15.418019713 -s 5 -d -1 -p cbr -e 512 -c 2 -a 0 -i 36 -k AGT
+ -t 15.418019713 -s 5 -d 4 -p cbr -e 532 -c 2 -a 0 -i 36 -k RTR 
- -t 15.418019713 -s 5 -d 4 -p cbr -e 532 -c 2 -a 0 -i 36 -k RTR
h -t 15.418019713 -s 5 -d 4 -p cbr -e 532 -c 2 -a 0 -i 36 -k RTR
+ -t 15.423569713 -s 4 -d 6 -p cbr -e 532 -c 2 -a 0 -i 36 -k RTR 
- -t 15.423569713 -s 4 -d 6 -p cbr -e 532 -c 2 -a 0 -i 36 -k RTR
h -t 15.423569713 -s 4 -d 6 -p cbr -e 532 -c 2 -a 0 -i 36 -k RTR
r -t 15.429543949 -s 6 -d 6 -p cbr -e 512 -c 2 -a 0 -i 36 -k AGT
+ -t 15.473500914 -s 0 -d -1 -p cbr -e 512 -c 2 -a 0 -i 37 -k AGT 
- -t 15.473500914 -s 0 -d -1 -p cbr -e 512 -c 2 -a 0 -i 37 -k AGT
h -t 15.473500914 -s 0 -d -1 -p cbr -e 512 -c 2 -a 0 -i 37 -k AGT
+ -t 15.473500914 -s 0 -d 1 -p cbr -e 532 -c 2 -a 0 -i 37 -k RTR 
- -t 15.473500914 -s 0 -d 1 -p cbr -e 532 -c 2 -a 0 -i 37 -k RTR
h -t 15.473500914 -s 0 -d 1 -p cbr -e 532 -c 2 -a 0 -i 37 -k RTR
+ -t 15.479070914 -s 1 -d 7 -p cbr -e 532 -c 2 -a 0 -i 37 -k RTR 
- -t 15.479070914 -s 1 -d 7 -p cbr -e 532 -c 2 -a 0 -i 37 -k RTR
h -t 15.479070914 -s 1 -d 7 -p cbr -e 532 -c 2 -a 0 -i 37 -k RTR
+ -t 15.484964914 -s 7 -d 10 -p cbr -e 532 -c 2 -a 0 -i 37 -k RTR 
- -t 15.484964914 -s 7 -d 10 -p cbr -e 532 -c 2 -a 0 -i 37 -k RTR
h -t 15.484964914 -s 7 -d 10 -p cbr -e 532 -c 2 -a 0 -i 37 -k RTR
r -t 15.490878914 -s 10 -d 10 -p cbr -e 512 -c 2 -a 0 -i 37 -k AGT
+ -t 15.497612924 -s 1 -d -1 -p cbr -e 512 -c 2 -a 0 -i 38 -k AGT 
- -t 15.497612924 -s 1 -d -1 -p cbr -e 512 -c 2 -a 0 -i 38 -k AGT
h -t 15.497612924 -s 1 -d -1 -p cbr -e 512 -c 2 -a 0 -i 38 -k AGT
+ -t 15.497612924 -s 1 -d 7 -p cbr -e 532 -c 2 -a 0 -i 38 -k RTR 
- -t 15.497612924 -s 1 -d 7 -p cbr -e 532 -c 2 -a 0 -i 38 -k RTR
h -t 15.497612924 -s 1 -d 7 -p cbr -e 532 -c 2 -a 0 -i 38 -k RTR
+ -t 15.503182924 -s 7 -d 10 -p cbr -e 532 -c 2 -a 0 -i 38 -k RTR 
- -t 15.503182924 -s 7 -d 10 -p cbr -e 532 -c 2 -a 0 -i 38 -k RTR
h -t 15.503182924 -s 7 -d 10 -p cbr -e 532 -c 2 -a 0 -i 38 -k RTR
+ -t 15.506667841 -s 5 -d -1 -p cbr -e 512 -c 2 -a 0 -i 39 -k AGT 
- -t 15.506667841 -s 5 -d -1 -p cbr -e 512 -c 2 -a 0 -i 39 -k AGT
h -t 15.506667841 -s 5 -d -1 -p cbr -e 512 -c 2 -a 0 -i 39 -k AGT
+ -t 15.506667841 -s 5 -d 4 -p cbr -e 532 -c 2 -a 0 -i 39 -k RTR 
- -t 15.506667841 -s 5 -d 4 -p cbr -e 532 -c 2 -a 0 -i 39 -k RTR
h -t 15.506667841 -s 5 -d 4 -p cbr -e 532 -c 2 -a 0 -i 39 -k RTR
r -t 15.509316924 -s 10 -d 10 -p cbr -e 512 -c 2 -a 0 -i 38 -k AGT
+ -t 15.515676126 -s 4 -d 6 -p cbr -e 532 -c 2 -a 0 -i 39 -k RTR 
- -t 15.515676126 -s 4 -d 6 -p cbr -e 532 -c 2 -a 0 -i 39 -k RTR
h -t 15.515676126 -s 4 -d 6 -p cbr -e 532 -c 2 -a 0 -i 39 -k RTR
r -t 15.521690362 -s 6 -d 6 -p cbr -e 512 -c 2 -a 0 -i 39 -k AGT
+ -t 15.606251659 -s 1 -d -1 -p cbr -e 512 -c 2 -a 0 -i 40 -k AGT 
- -t 15.606251659 -s 1 -d -1 -p cbr -e 512 -c 2 -a 0 -i 40 -k AGT
h -t 15.606251659 -s 1 -d -1 -p cbr -e 512 -c 2 -a 0 -i 40 -k AGT
+ -t 15.606251659 -s 1 -d 7 -p cbr -e 532 -c 2 -a 0 -i 40 -k RTR 
- -t 15.606251659 -s 1 -d 7 -p cbr -e 532 -c 2 -a 0 -i 40 -k RTR
h -t 15.606251659 -s 1 -d 7 -p cbr -e 532 -c 2 -a 0 -i 40 -k RTR
+ -t 15.611741659 -s 7 -d 10 -p cbr -e 532 -c 2 -a 0 -i 40 -k RTR 
- -t 15.611741659 -s 7 -d 10 -p cbr -e 532 -c 2 -a 0 -i 40 -k RTR
h -t 15.611741659 -s 7 -d 10 -p cbr -e 532 -c 2 -a 0 -i 40 -k RTR
+ -t 15.614802199 -s 0 -d -1 -p cbr -e 512 -c 2 -a 0 -i 41 -k AGT 
- -t 15.614802199 -s 0 -d -1 -p cbr -e 512 -c 2 -a 0 -i 41 -k AGT
h -t 15.614802199 -s 0 -d -1 -p cbr -e 512 -c 2 -a 0 -i 41 -k AGT
+ -t 15.614802199 -s 0 -d 1 -p cbr -e 532 -c 2 -a 0 -i 41 -k RTR 
- -t 15.614802199 -s 0 -d 1 -p cbr -e 532 -c 2 -a 0 -i 41 -k RTR
h -t 15.614802199 -s 0 -d 1 -p cbr -e 532 -c 2 -a 0 -i 41 -k RTR
r -t 15.617975659 -s 10 -d 10 -p cbr -e 512 -c 2 -a 0 -i 40 -k AGT
+ -t 15.624495150 -s 1 -d 7 -p cbr -e 532 -c 2 -a 0 -i 41 -k RTR 
- -t 15.624495150 -s 1 -d 7 -p cbr -e 532 -c 2 -a 0 -i 41 -k RTR
h -t 15.624495150 -s 1 -d 7 -p cbr -e 532 -c 2 -a 0 -i 41 -k RTR
+ -t 15.630709150 -s 7 -d 10 -p cbr -e 532 -c 2 -a 0 -i 41 -k RTR 
- -t 15.630709150 -s 7 -d 10 -p cbr -e 532 -c 2 -a 0 -i 41 -k RTR
h -t 15.630709150 -s 7 -d 10 -p cbr -e 532 -c 2 -a 0 -i 41 -k RTR
+ -t 15.631908426 -s 5 -d -1 -p cbr -e 512 -c 2 -a 0 -i 42 -k AGT 
- -t 15.631908426 -s 5 -d -1 -p cbr -e 512 -c 2 -a 0 -i 42 -k AGT
h -t 15.631908426 -s 5 -d -1 -p cbr -e 512 -c 2 -a 0 -i 42 -k AGT
+ -t 15.631908426 -s 5 -d 4 -p cbr -e 532 -c 2 -a 0 -i 42 -k RTR 
- -t 15.631908426 -s 5 -d 4 -p cbr -e 532 -c 2 -a 0 -i 42 -k RTR
h -t 15.631908426 -s 5 -d 4 -p cbr -e 532 -c 2 -a 0 -i 42 -k RTR
r -t 15.636663150 -s 10 -d 10 -p cbr -e 512 -c 2 -a 0 -i 41 -k AGT
+ -t 15.642842352 -s 4 -d 6 -p cbr -e 532 -c 2 -a 0 -i 42 -k RTR 
- -t 15.642842352 -s 4 -d 6 -p cbr -e 532 -c 2 -a 0 -i 42 -k RTR
h -t 15.642842352 -s 4 -d 6 -p cbr -e 532 -c 2 -a 0 -i 42 -k RTR
r -t 15.648616588 -s 6 -d 6 -p cbr -e 512 -c 2 -a 0 -i 42 -k AGT
+ -t 15.682697912 -s 5 -d -1 -p cbr -e 512 -c 2 -a 0 -i 43 -k AGT 
- -t 15.682697912 -s 5 -d -1 -p cbr -e 512 -c 2 -a 0 -i 43 -k AGT
h -t 15.682697912 -s 5 -d -1 -p cbr -e 512 -c 2 -a 0 -i 43 -k AGT
+ -t 15.682697912 -s 5 -d 4 -p cbr -e 532 -c 2 -a 0 -i 43 -k RTR 
- -t 15.682697912 -s 5 -d 4 -p cbr -e 532 -c 2 -a 0 -i 43 -k RTR
h -t 15.682697912 -s 5 -d 4 -p cbr -e 532 -c 2 -a 0 -i 43 -k RTR
+ -t 15.688687912 -s 4 -d 6 -p cbr -e 532 -c 2 -a 0 -i 43 -k RTR 
- -t 15.688687912 -s 4 -d 6 -p cbr -e 532 -c 2 -a 0 -i 43 -k RTR
h -t 15.688687912 -s 4 -d 6 -p cbr -e 532 -c 2 -a 0 -i 43 -k RTR
r -t 15.694842148 -s 6 -d 6 -p cbr -e 512 -c 2 -a 0 -i 43 -k AGT
+ -t 15.715305502 -s 1 -d -1 -p cbr -e 512 -c 2 -a 0 -i 44 -k AGT 
- -t 15.715305502 -s 1 -d -1 -p cbr -e 512 -c 2 -a 0 -i 44 -k AGT
h -t 15.715305502 -s 1 -d -1 -p cbr -e 512 -c 2 -a 0 -i 44 -k AGT
+ -t 15.715305502 -s 1 -d 7 -p cbr -e 532 -c 2 -a 0 -i 44 -k RTR 
- -t 15.715305502 -s 1 -d 7 -p cbr -e 532 -c 2 -a 0 -i 44 -k RTR
h -t 15.715305502 -s 1 -d 7 -p cbr -e 532 -c 2 -a 0 -i 44 -k RTR
+ -t 15.721335502 -s 7 -d 10 -p cbr -e 532 -c 2 -a 0 -i 44 -k RTR 
- -t 15.721335502 -s 7 -d 10 -p cbr -e 532 -c 2 -a 0 -i 44 -k RTR
h -t 15.721335502 -s 7 -d 10 -p cbr -e 532 -c 2 -a 0 -i 44 -k RTR
r -t 15.727349502 -s 10 -d 10 -p cbr -e 512 -c 2 -a 0 -i 44 -k AGT
+ -t 15.758664582 -s 0 -d -1 -p cbr -e 512 -c 2 -a 0 -i 45 -k AGT 
- -t 15.758664582 -s 0 -d -1 -p cbr -e 512 -c 2 -a 0 -i 45 -k AGT
h -t 15.758664582 -s 0 -d -1 -p cbr -e 512 -c 2 -a 0 -i 45 -k AGT
+ -t 15.758664582 -s 0 -d 1 -p cbr -e 532 -c 2 -a 0 -i 45 -k RTR 
- -t 15.758664582 -s 0 -d 1 -p cbr -e 532 -c 2 -a 0 -i 45 -k RTR
h -t 15.758664582 -s 0 -d 1 -p cbr -e 532 -c 2 -a 0 -i 45 -k RTR
+ -t 15.764614582 -s 1 -d 7 -p cbr -e 532 -c 2 -a 0 -i 45 -k RTR 
- -t 15.764614582 -s 1 -d 7 -p cbr -e 532 -c 2 -a 0 -i 45 -k RTR
h -t 15.764614582 -s 1 -d 7 -p cbr -e 532 -c 2 -a 0 -i 45 -k RTR
+ -t 15.770388582 -s 7 -d 10 -p cbr -e 532 -c 2 -a 0 -i 45 -k RTR 
- -t 15.770388582 -s 7 -d 10 -p cbr -e 532 -c 2 -a 0 -i 45 -k RTR
h -t 15.770388582 -s 7 -d 10 -p cbr -e 532 -c 2 -a 0 -i 45 -k RTR
r -t 15.776262582 -s 10 -d 10 -p cbr -e 512 -c 2 -a 0 -i 45 -k AGT
+ -t 15.779679377 -s 5 -d -1 -p cbr -e 512 -c 2 -a 0 -i 46 -k AGT 
- -t 15.779679377 -s 5 -d -1 -p cbr -e 512 -c 2 -a 0 -i 46 -k AGT
h -t 15.779679377 -s 5 -d -1 -p cbr -e 512 -c 2 -a 0 -i 46 -k AGT
+ -t 15.779679377 -s 5 -d 4 -p cbr -e 532 -c 2 -a 0 -i 46 -k RTR 
- -t 15.779679377 -s 5 -d 4 -p cbr -e 532 -c 2 -a 0 -i 46 -k RTR
h -t 15.779679377 -s 5 -d 4 -p cbr -e 532 -c 2 -a 0 -i 46 -k RTR
+ -t 15.781256453 -s 1 -d -1 -p cbr -e 512 -c 2 -a 0 -i 47 -k AGT 
- -t 15.781256453 -s 1 -d -1 -p cbr -e 512 -c 2 -a 0 -i 47 -k AGT
h -t 15.781256453 -s 1 -d -1 -p cbr -e 512 -c 2 -a 0 -i 47 -k AGT
+ -t 15.781256453 -s 1 -d 7 -p cbr -e 532 -c 2 -a 0 -i 47 -k RTR 
- -t 15.781256453 -s 1 -d 7 -p cbr -e 532 -c 2 -a 0 -i 47 -k RTR
h -t 15.781256453 -s 1 -d 7 -p cbr -e 532 -c 2 -a 0 -i 47 -k RTR
+ -t 15.785589377 -s 4 -d 6 -p cbr -e 532 -c 2 -a 0 -i 46 -k RTR 
- -t 15.785589377 -s 4 -d 6 -p cbr -e 532 -c 2 -a 0 -i 46 -k RTR
h -t 15.785589377 -s 4 -d 6 -p cbr -e 532 -c 2 -a 0 -i 46 -k RTR
+ -t 15.791563710 -s 7 -d 10 -p cbr -e 532 -c 2 -a 0 -i 47 -k RTR 
- -t 15.791563710 -s 7 -d 10 -p cbr -e 532 -c 2 -a 0 -i 47 -k RTR
h -t 15.791563710 -s 7 -d 10 -p cbr -e 532 -c 2 -a 0 -i 47 -k RTR
r -t 15.803310377 -s 10 -d 10 -p cbr -e 512 -c 2 -a 0 -i 47 -k AGT
r -t 15.809509613 -s 6 -d 6 -p cbr -e 512 -c 2 -a 0 -i 46 -k AGT
+ -t 15.866316671 -s 0 -d -1 -p cbr -e 512 -c 2 -a 0 -i 48 -k AGT 
- -t 15.866316671 -s 0 -d -1 -p cbr -e 512 -c 2 -a 0 -i 48 -k AGT
h -t 15.866316671 -s 0 -d -1 -p cbr -e 512 -c 2 -a 0 -i 48 -k AGT