s 0.000000000 _0_ RTR  --- 0 AODV 44 [0 0 0 0] ------- [0:255 -1:255 1 0] [0x1 1 [0 2] 4.000000] (HELLO)
s 0.000000000 _1_ RTR  --- 0 AODV 44 [0 0 0 0] ------- [1:255 -1:255 1 0] [0x1 1 [1 2] 4.000000] (HELLO)
s 0.000000000 _2_ RTR  --- 0 AODV 44 [0 0 0 0] ------- [2:255 -1:255 1 0] [0x1 1 [2 2] 4.000000] (HELLO)
s 0.000000000 _3_ RTR  --- 0 AODV 44 [0 0 0 0] ------- [3:255 -1:255 1 0] [0x1 1 [3 2] 4.000000] (HELLO)
s 0.000000000 _4_ RTR  --- 0 AODV 44 [0 0 0 0] ------- [4:255 -1:255 1 0] [0x1 1 [4 2] 4.000000] (HELLO)
s 0.000000000 _5_ RTR  --- 0 AODV 44 [0 0 0 0] ------- [5:255 -1:255 1 0] [0x1 1 [5 2] 4.000000] (HELLO)
s 0.000000000 _6_ RTR  --- 0 AODV 44 [0 0 0 0] ------- [6:255 -1:255 1 0] [0x1 1 [6 2] 4.000000] (HELLO)
s 0.000000000 _7_ RTR  --- 0 AODV 44 [0 0 0 0] ------- [7:255 -1:255 1 0] [0x1 1 [7 2] 4.000000] (HELLO)
s 0.000000000 _8_ RTR  --- 0 AODV 44 [0 0 0 0] ------- [8:255 -1:255 1 0] [0x1 1 [8 2] 4.000000] (HELLO)
r 0.000908667 _0_ RTR  --- 0 AODV 44 [0 ffffffff 3 800] ------- [3:255 -1:255 1 0] [0x1 1 [3 2] 4.000000] (HELLO)
r 0.000908667 _6_ RTR  --- 0 AODV 44 [0 ffffffff 3 800] ------- [3:255 -1:255 1 0] [0x1 1 [3 2] 4.000000] (HELLO)
r 0.000908667 _4_ RTR  --- 0 AODV 44 [0 ffffffff 3 800] ------- [3:255 -1:255 1 0] [0x1 1 [3 2] 4.000000] (HELLO)
s 0.000908667 _0_ RTR  --- 0 AODV 26 [0 0 0 0] ------- [0:255 3:255 1 3] [0x12 0 [1776105039 1041146866] 0.000000] (HELLO)
s 0.000908667 _6_ RTR  --- 0 AODV 26 [0 0 0 0] ------- [6:255 3:255 1 3] [0x12 0 [1776105039 1041146866] 0.000000] (HELLO)
s 0.000908667 _4_ RTR  --- 0 AODV 26 [0 0 0 0] ------- [4:255 3:255 1 3] [0x12 0 [1776105039 1041146866] 0.000000] (HELLO)
r 0.002047333 _1_ RTR  --- 0 AODV 44 [0 ffffffff 0 800] ------- [0:255 -1:255 1 0] [0x1 1 [0 2] 4.000000] (HELLO)
r 0.002047333 _7_ RTR  --- 0 AODV 44 [0 ffffffff 6 800] ------- [6:255 -1:255 1 0] [0x1 1 [6 2] 4.000000] (HELLO)
s 0.002047333 _1_ RTR  --- 0 AODV 26 [0 0 0 0] ------- [1:255 0:255 1 0] [0x12 0 [1776105039 1041146866] 0.000000] (HELLO)
s 0.002047333 _7_ RTR  --- 0 AODV 26 [0 0 0 0] ------- [7:255 6:255 1 6] [0x12 0 [1776105039 1041146866] 0.000000] (HELLO)
r 0.003350667 _5_ RTR  --- 0 AODV 44 [0 ffffffff 8 800] ------- [8:255 -1:255 1 0] [0x1 1 [8 2] 4.000000] (HELLO)
s 0.003350667 _5_ RTR  --- 0 AODV 26 [0 0 0 0] ------- [5:255 8:255 1 8] [0x12 0 [1776105039 1041146866] 0.000000] (HELLO)
r 0.003350824 _2_ RTR  --- 0 AODV 44 [0 ffffffff 5 800] ------- [5:255 -1:255 1 0] [0x1 1 [5 2] 4.000000] (HELLO)
r 0.003350824 _8_ RTR  --- 0 AODV 44 [0 ffffffff 5 800] ------- [5:255 -1:255 1 0] [0x1 1 [5 2] 4.000000] (HELLO)
s 0.003350824 _2_ RTR  --- 0 AODV 26 [0 0 0 0] ------- [2:255 5:255 1 5] [0x12 0 [1776105039 1041146866] 0.000000] (HELLO)
s 0.003350824 _8_ RTR  --- 0 AODV 26 [0 0 0 0] ------- [8:255 5:255 1 5] [0x12 0 [1776105039 1041146866] 0.000000] (HELLO)
r 0.004902824 _5_ RTR  --- 0 AODV 26 [13a 5 8 800] ------- [8:255 5:255 1 5] [0x12 0 [1776105039 1041146866] 0.000000] (HELLO)
r 0.006812472 _8_ RTR  --- 0 AODV 26 [13a 8 5 800] ------- [5:255 8:255 1 8] [0x12 0 [1776105039 1041146866] 0.000000] (HELLO)
r 0.008075415 _4_ RTR  --- 0 AODV 44 [0 ffffffff 7 800] ------- [7:255 -1:255 1 0] [0x1 1 [7 2] 4.000000] (HELLO)
r 0.008075415 _6_ RTR  --- 0 AODV 44 [0 ffffffff 7 800] ------- [7:255 -1:255 1 0] [0x1 1 [7 2] 4.000000] (HELLO)
r 0.008075415 _8_ RTR  --- 0 AODV 44 [0 ffffffff 7 800] ------- [7:255 -1:255 1 0] [0x1 1 [7 2] 4.000000] (HELLO)
s 0.008075415 _4_ RTR  --- 0 AODV 26 [0 0 0 0] ------- [4:255 7:255 1 7] [0x12 0 [1776105039 1041146866] 0.000000] (HELLO)
s 0.008075415 _6_ RTR  --- 0 AODV 26 [0 0 0 0] ------- [6:255 7:255 1 7] [0x12 0 [1776105039 1041146866] 0.000000] (HELLO)
s 0.008075415 _8_ RTR  --- 0 AODV 26 [0 0 0 0] ------- [8:255 7:255 1 7] [0x12 0 [1776105039 1041146866] 0.000000] (HELLO)
r 0.008954082 _1_ RTR  --- 0 AODV 44 [0 ffffffff 4 800] ------- [4:255 -1:255 1 0] [0x1 1 [4 2] 4.000000] (HELLO)
r 0.008954082 _3_ RTR  --- 0 AODV 44 [0 ffffffff 4 800] ------- [4:255 -1:255 1 0] [0x1 1 [4 2] 4.000000] (HELLO)
r 0.008954082 _7_ RTR  --- 0 AODV 44 [0 ffffffff 4 800] ------- [4:255 -1:255 1 0] [0x1 1 [4 2] 4.000000] (HELLO)
r 0.008954082 _5_ RTR  --- 0 AODV 44 [0 ffffffff 4 800] ------- [4:255 -1:255 1 0] [0x1 1 [4 2] 4.000000] (HELLO)
s 0.008954082 _1_ RTR  --- 0 AODV 26 [0 0 0 0] ------- [1:255 4:255 1 4] [0x12 0 [1776105039 1041146866] 0.000000] (HELLO)
s 0.008954082 _3_ RTR  --- 0 AODV 26 [0 0 0 0] ------- [3:255 4:255 1 4] [0x12 0 [1776105039 1041146866] 0.000000] (HELLO)
s 0.008954082 _7_ RTR  --- 0 AODV 26 [0 0 0 0] ------- [7:255 4:255 1 4] [0x12 0 [1776105039 1041146866] 0.000000] (HELLO)
s 0.008954082 _5_ RTR  --- 0 AODV 26 [0 0 0 0] ------- [5:255 4:255 1 4] [0x12 0 [1776105039 1041146866] 0.000000] (HELLO)
r 0.010346082 _4_ RTR  --- 0 AODV 26 [13a 4 3 800] ------- [3:255 4:255 1 4] [0x12 0 [1776105039 1041146866] 0.000000] (HELLO)
r 0.011589024 _0_ RTR  --- 0 AODV 44 [0 ffffffff 1 800] ------- [1:255 -1:255 1 0] [0x1 1 [1 2] 4.000000] (HELLO)
r 0.011589024 _4_ RTR  --- 0 AODV 44 [0 ffffffff 1 800] ------- [1:255 -1:255 1 0] [0x1 1 [1 2] 4.000000] (HELLO)
r 0.011589024 _2_ RTR  --- 0 AODV 44 [0 ffffffff 1 800] ------- [1:255 -1:255 1 0] [0x1 1 [1 2] 4.000000] (HELLO)
s 0.011589024 _0_ RTR  --- 0 AODV 26 [0 0 0 0] ------- [0:255 1:255 1 1] [0x12 0 [1776105039 1041146866] 0.000000] (HELLO)
s 0.011589024 _4_ RTR  --- 0 AODV 26 [0 0 0 0] ------- [4:255 1:255 1 1] [0x12 0 [1776105039 1041146866] 0.000000] (HELLO)
s 0.011589024 _2_ RTR  --- 0 AODV 26 [0 0 0 0] ------- [2:255 1:255 1 1] [0x12 0 [1776105039 1041146866] 0.000000] (HELLO)
r 0.012487691 _1_ RTR  --- 0 AODV 44 [0 ffffffff 2 800] ------- [2:255 -1:255 1 0] [0x1 1 [2 2] 4.000000] (HELLO)
r 0.012487691 _5_ RTR  --- 0 AODV 44 [0 ffffffff 2 800] ------- [2:255 -1:255 1 0] [0x1 1 [2 2] 4.000000] (HELLO)
s 0.012487691 _1_ RTR  --- 0 AODV 26 [0 0 0 0] ------- [1:255 2:255 1 2] [0x12 0 [1776105039 1041146866] 0.000000] (HELLO)
s 0.012487691 _5_ RTR  --- 0 AODV 26 [0 0 0 0] ------- [5:255 2:255 1 2] [0x12 0 [1776105039 1041146866] 0.000000] (HELLO)
r 0.013879024 _1_ RTR  --- 0 AODV 26 [13a 1 2 800] ------- [2:255 1:255 1 1] [0x12 0 [1776105039 1041146866] 0.000000] (HELLO)
r 0.015755691 _3_ RTR  --- 0 AODV 26 [13a 3 0 800] ------- [0:255 3:255 1 3] [0x12 0 [1776105039 1041146866] 0.000000] (HELLO)
r 0.017491967 _7_ RTR  --- 0 AODV 26 [13a 7 4 800] ------- [4:255 7:255 1 7] [0x12 0 [1776105039 1041146866] 0.000000] (HELLO)
r 0.019177967 _6_ RTR  --- 0 AODV 26 [13a 6 7 800] ------- [7:255 6:255 1 6] [0x12 0 [1776105039 1041146866] 0.000000] (HELLO)
r 0.021054791 _5_ RTR  --- 0 AODV 26 [13a 5 2 800] ------- [2:255 5:255 1 5] [0x12 0 [1776105039 1041146866] 0.000000] (HELLO)
r 0.022851067 _1_ RTR  --- 0 AODV 26 [13a 1 4 800] ------- [4:255 1:255 1 1] [0x12 0 [1776105039 1041146866] 0.000000] (HELLO)
r 0.024597067 _4_ RTR  --- 0 AODV 26 [13a 4 1 800] ------- [1:255 4:255 1 4] [0x12 0 [1776105039 1041146866] 0.000000] (HELLO)
r 0.026283067 _3_ RTR  --- 0 AODV 26 [13a 3 4 800] ------- [4:255 3:255 1 3] [0x12 0 [1776105039 1041146866] 0.000000] (HELLO)
r 0.028039344 _3_ RTR  --- 0 AODV 26 [13a 3 6 800] ------- [6:255 3:255 1 3] [0x12 0 [1776105039 1041146866] 0.000000] (HELLO)
r 0.029776010 _1_ RTR  --- 0 AODV 26 [13a 1 0 800] ------- [0:255 1:255 1 1] [0x12 0 [1776105039 1041146866] 0.000000] (HELLO)
r 0.031887344 _4_ RTR  --- 0 AODV 26 [13a 4 7 800] ------- [7:255 4:255 1 4] [0x12 0 [1776105039 1041146866] 0.000000] (HELLO)
r 0.033623620 _4_ RTR  --- 0 AODV 26 [13a 4 5 800] ------- [5:255 4:255 1 4] [0x12 0 [1776105039 1041146866] 0.000000] (HELLO)
r 0.035599896 _2_ RTR  --- 0 AODV 26 [13a 2 1 800] ------- [1:255 2:255 1 2] [0x12 0 [1776105039 1041146866] 0.000000] (HELLO)
r 0.037356172 _2_ RTR  --- 0 AODV 26 [13a 2 5 800] ------- [5:255 2:255 1 2] [0x12 0 [1776105039 1041146866] 0.000000] (HELLO)
r 0.039092996 _7_ RTR  --- 0 AODV 26 [13a 7 6 800] ------- [6:255 7:255 1 7] [0x12 0 [1776105039 1041146866] 0.000000] (HELLO)
r 0.041524329 _0_ RTR  --- 0 AODV 26 [13a 0 1 800] ------- [1:255 0:255 1 0] [0x12 0 [1776105039 1041146866] 0.000000] (HELLO)
r 0.043481153 _7_ RTR  --- 0 AODV 26 [13a 7 8 800] ------- [8:255 7:255 1 7] [0x12 0 [1776105039 1041146866] 0.000000] (HELLO)
s 0.750169789 _0_ RTR  --- 0 AODV 44 [0 0 0 0] ------- [0:255 -1:255 1 0] [0x1 1 [0 6] 4.000000] (HELLO)
r 0.751258455 _3_ RTR  --- 0 AODV 44 [0 ffffffff 0 800] ------- [0:255 -1:255 1 0] [0x1 1 [0 6] 4.000000] (HELLO)
r 0.751258455 _1_ RTR  --- 0 AODV 44 [0 ffffffff 0 800] ------- [0:255 -1:255 1 0] [0x1 1 [0 6] 4.000000] (HELLO)
s 0.751258455 _3_ RTR  --- 0 AODV 26 [0 0 0 0] ------- [3:255 0:255 1 0] [0x12 0 [1776105039 1041146866] 0.000000] (HELLO)
s 0.751258455 _1_ RTR  --- 0 AODV 26 [0 0 0 0] ------- [1:255 0:255 1 0] [0x12 0 [1776105039 1041146866] 0.000000] (HELLO)
r 0.752820455 _0_ RTR  --- 0 AODV 26 [13a 0 3 800] ------- [3:255 0:255 1 0] [0x12 0 [1776105039 1041146866] 0.000000] (HELLO)
r 0.754596731 _0_ RTR  --- 0 AODV 26 [13a 0 1 800] ------- [1:255 0:255 1 0] [0x12 0 [1776105039 1041146866] 0.000000] (HELLO)
s 0.757102330 _2_ RTR  --- 0 AODV 44 [0 0 0 0] ------- [2:255 -1:255 1 0] [0x1 1 [2 6] 4.000000] (HELLO)
r 0.758210997 _1_ RTR  --- 0 AODV 44 [0 ffffffff 2 800] ------- [2:255 -1:255 1 0] [0x1 1 [2 6] 4.000000] (HELLO)
r 0.758210997 _5_ RTR  --- 0 AODV 44 [0 ffffffff 2 800] ------- [2:255 -1:255 1 0] [0x1 1 [2 6] 4.000000] (HELLO)
s 0.758210997 _1_ RTR  --- 0 AODV 26 [0 0 0 0] ------- [1:255 2:255 1 2] [0x12 0 [1776105039 1041146866] 0.000000] (HELLO)
s 0.758210997 _5_ RTR  --- 0 AODV 26 [0 0 0 0] ------- [5:255 2:255 1 2] [0x12 0 [1776105039 1041146866] 0.000000] (HELLO)
r 0.759632997 _2_ RTR  --- 0 AODV 26 [13a 2 5 800] ------- [5:255 2:255 1 2] [0x12 0 [1776105039 1041146866] 0.000000] (HELLO)
r 0.761609273 _2_ RTR  --- 0 AODV 26 [13a 2 1 800] ------- [1:255 2:255 1 2] [0x12 0 [1776105039 1041146866] 0.000000] (HELLO)
s 0.794061336 _3_ RTR  --- 0 AODV 44 [0 0 0 0] ------- [3:255 -1:255 1 0] [0x1 1 [3 6] 4.000000] (HELLO)
r 0.795230002 _0_ RTR  --- 0 AODV 44 [0 ffffffff 3 800] ------- [3:255 -1:255 1 0] [0x1 1 [3 6] 4.000000] (HELLO)
r 0.795230002 _6_ RTR  --- 0 AODV 44 [0 ffffffff 3 800] ------- [3:255 -1:255 1 0] [0x1 1 [3 6] 4.000000] (HELLO)
r 0.795230002 _4_ RTR  --- 0 AODV 44 [0 ffffffff 3 800] ------- [3:255 -1:255 1 0] [0x1 1 [3 6] 4.000000] (HELLO)
s 0.795230002 _0_ RTR  --- 0 AODV 26 [0 0 0 0] ------- [0:255 3:255 1 3] [0x12 0 [1776105039 1041146866] 0.000000] (HELLO)
s 0.795230002 _6_ RTR  --- 0 AODV 26 [0 0 0 0] ------- [6:255 3:255 1 3] [0x12 0 [1776105039 1041146866] 0.000000] (HELLO)
s 0.795230002 _4_ RTR  --- 0 AODV 26 [0 0 0 0] ------- [4:255 3:255 1 3] [0x12 0 [1776105039 1041146866] 0.000000] (HELLO)
r 0.796752002 _3_ RTR  --- 0 AODV 26 [13a 3 6 800] ------- [6:255 3:255 1 3] [0x12 0 [1776105039 1041146866] 0.000000] (HELLO)
r 0.798548278 _3_ RTR  --- 0 AODV 26 [13a 3 4 800] ------- [4:255 3:255 1 3] [0x12 0 [1776105039 1041146866] 0.000000] (HELLO)
r 0.800524555 _3_ RTR  --- 0 AODV 26 [13a 3 0 800] ------- [0:255 3:255 1 3] [0x12 0 [1776105039 1041146866] 0.000000] (HELLO)
s 0.867300876 _8_ RTR  --- 0 AODV 44 [0 0 0 0] ------- [8:255 -1:255 1 0] [0x1 1 [8 6] 4.000000] (HELLO)
r 0.868229543 _5_ RTR  --- 0 AODV 44 [0 ffffffff 8 800] ------- [8:255 -1:255 1 0] [0x1 1 [8 6] 4.000000] (HELLO)
r 0.868229543 _7_ RTR  --- 0 AODV 44 [0 ffffffff 8 800] ------- [8:255 -1:255 1 0] [0x1 1 [8 6] 4.000000] (HELLO)
s 0.868229543 _5_ RTR  --- 0 AODV 26 [0 0 0 0] ------- [5:255 8:255 1 8] [0x12 0 [1776105039 1041146866] 0.000000] (HELLO)
s 0.868229543 _7_ RTR  --- 0 AODV 26 [0 0 0 0] ------- [7:255 8:255 1 8] [0x12 0 [1776105039 1041146866] 0.000000] (HELLO)
r 0.869751543 _8_ RTR  --- 0 AODV 26 [13a 8 7 800] ------- [7:255 8:255 1 8] [0x12 0 [1776105039 1041146866] 0.000000] (HELLO)
r 0.871947819 _8_ RTR  --- 0 AODV 26 [13a 8 5 800] ------- [5:255 8:255 1 8] [0x12 0 [1776105039 1041146866] 0.000000] (HELLO)
s 0.906480886 _6_ RTR  --- 0 AODV 44 [0 0 0 0] ------- [6:255 -1:255 1 0] [0x1 1 [6 6] 4.000000] (HELLO)
r 0.907949552 _3_ RTR  --- 0 AODV 44 [0 ffffffff 6 800] ------- [6:255 -1:255 1 0] [0x1 1 [6 6] 4.000000] (HELLO)
r 0.907949552 _7_ RTR  --- 0 AODV 44 [0 ffffffff 6 800] ------- [6:255 -1:255 1 0] [0x1 1 [6 6] 4.000000] (HELLO)
s 0.907949552 _3_ RTR  --- 0 AODV 26 [0 0 0 0] ------- [3:255 6:255 1 6] [0x12 0 [1776105039 1041146866] 0.000000] (HELLO)
s 0.907949552 _7_ RTR  --- 0 AODV 26 [0 0 0 0] ------- [7:255 6:255 1 6] [0x12 0 [1776105039 1041146866] 0.000000] (HELLO)
r 0.909651552 _6_ RTR  --- 0 AODV 26 [13a 6 7 800] ------- [7:255 6:255 1 6] [0x12 0 [1776105039 1041146866] 0.000000] (HELLO)
r 0.911607829 _6_ RTR  --- 0 AODV 26 [13a 6 3 800] ------- [3:255 6:255 1 6] [0x12 0 [1776105039 1041146866] 0.000000] (HELLO)
s 0.970586691 _4_ RTR  --- 0 AODV 44 [0 0 0 0] ------- [4:255 -1:255 1 0] [0x1 1 [4 8] 4.000000] (HELLO)
r 0.971495358 _1_ RTR  --- 0 AODV 44 [0 ffffffff 4 800] ------- [4:255 -1:255 1 0] [0x1 1 [4 8] 4.000000] (HELLO)
r 0.971495358 _3_ RTR  --- 0 AODV 44 [0 ffffffff 4 800] ------- [4:255 -1:255 1 0] [0x1 1 [4 8] 4.000000] (HELLO)
r 0.971495358 _7_ RTR  --- 0 AODV 44 [0 ffffffff 4 800] ------- [4:255 -1:255 1 0] [0x1 1 [4 8] 4.000000] (HELLO)
r 0.971495358 _5_ RTR  --- 0 AODV 44 [0 ffffffff 4 800] ------- [4:255 -1:255 1 0] [0x1 1 [4 8] 4.000000] (HELLO)
s 0.971495358 _1_ RTR  --- 0 AODV 26 [0 0 0 0] ------- [1:255 4:255 1 4] [0x12 0 [1776105039 1041146866] 0.000000] (HELLO)
s 0.971495358 _3_ RTR  --- 0 AODV 26 [0 0 0 0] ------- [3:255 4:255 1 4] [0x12 0 [1776105039 1041146866] 0.000000] (HELLO)
s 0.971495358 _7_ RTR  --- 0 AODV 26 [0 0 0 0] ------- [7:255 4:255 1 4] [0x12 0 [1776105039 1041146866] 0.000000] (HELLO)
s 0.971495358 _5_ RTR  --- 0 AODV 26 [0 0 0 0] ------- [5:255 4:255 1 4] [0x12 0 [1776105039 1041146866] 0.000000] (HELLO)
r 0.973057358 _4_ RTR  --- 0 AODV 26 [13a 4 7 800] ------- [7:255 4:255 1 4] [0x12 0 [1776105039 1041146866] 0.000000] (HELLO)
r 0.974793634 _4_ RTR  --- 0 AODV 26 [13a 4 3 800] ------- [3:255 4:255 1 4] [0x12 0 [1776105039 1041146866] 0.000000] (HELLO)
r 0.976549910 _4_ RTR  --- 0 AODV 26 [13a 4 1 800] ------- [1:255 4:255 1 4] [0x12 0 [1776105039 1041146866] 0.000000] (HELLO)
r 0.978486186 _4_ RTR  --- 0 AODV 26 [13a 4 5 800] ------- [5:255 4:255 1 4] [0x12 0 [1776105039 1041146866] 0.000000] (HELLO)
s 1.027940358 _1_ RTR  --- 0 AODV 44 [0 0 0 0] ------- [1:255 -1:255 1 0] [0x1 1 [1 8] 4.000000] (HELLO)
r 1.028949025 _0_ RTR  --- 0 AODV 44 [0 ffffffff 1 800] ------- [1:255 -1:255 1 0] [0x1 1 [1 8] 4.000000] (HELLO)
r 1.028949025 _4_ RTR  --- 0 AODV 44 [0 ffffffff 1 800] ------- [1:255 -1:255 1 0] [0x1 1 [1 8] 4.000000] (HELLO)
r 1.028949025 _2_ RTR  --- 0 AODV 44 [0 ffffffff 1 800] ------- [1:255 -1:255 1 0] [0x1 1 [1 8] 4.000000] (HELLO)
s 1.028949025 _0_ RTR  --- 0 AODV 26 [0 0 0 0] ------- [0:255 1:255 1 1] [0x12 0 [1776105039 1041146866] 0.000000] (HELLO)
s 1.028949025 _4_ RTR  --- 0 AODV 26 [0 0 0 0] ------- [4:255 1:255 1 1] [0x12 0 [1776105039 1041146866] 0.000000] (HELLO)
s 1.028949025 _2_ RTR  --- 0 AODV 26 [0 0 0 0] ------- [2:255 1:255 1 1] [0x12 0 [1776105039 1041146866] 0.000000] (HELLO)
r 1.030671025 _1_ RTR  --- 0 AODV 26 [13a 1 0 800] ------- [0:255 1:255 1 1] [0x12 0 [1776105039 1041146866] 0.000000] (HELLO)
r 1.032487301 _1_ RTR  --- 0 AODV 26 [13a 1 4 800] ------- [4:255 1:255 1 1] [0x12 0 [1776105039 1041146866] 0.000000] (HELLO)
r 1.034283577 _1_ RTR  --- 0 AODV 26 [13a 1 2 800] ------- [2:255 1:255 1 1] [0x12 0 [1776105039 1041146866] 0.000000] (HELLO)
s 1.149577727 _5_ RTR  --- 0 AODV 44 [0 0 0 0] ------- [5:255 -1:255 1 0] [0x1 1 [5 8] 4.000000] (HELLO)
r 1.150546393 _2_ RTR  --- 0 AODV 44 [0 ffffffff 5 800] ------- [5:255 -1:255 1 0] [0x1 1 [5 8] 4.000000] (HELLO)
r 1.150546393 _4_ RTR  --- 0 AODV 44 [0 ffffffff 5 800] ------- [5:255 -1:255 1 0] [0x1 1 [5 8] 4.000000] (HELLO)
r 1.150546393 _8_ RTR  --- 0 AODV 44 [0 ffffffff 5 800] ------- [5:255 -1:255 1 0] [0x1 1 [5 8] 4.000000] (HELLO)
s 1.150546393 _2_ RTR  --- 0 AODV 26 [0 0 0 0] ------- [2:255 5:255 1 5] [0x12 0 [1776105039 1041146866] 0.000000] (HELLO)
s 1.150546393 _4_ RTR  --- 0 AODV 26 [0 0 0 0] ------- [4:255 5:255 1 5] [0x12 0 [1776105039 1041146866] 0.000000] (HELLO)
s 1.150546393 _8_ RTR  --- 0 AODV 26 [0 0 0 0] ------- [8:255 5:255 1 5] [0x12 0 [1776105039 1041146866] 0.000000] (HELLO)
r 1.152008393 _5_ RTR  --- 0 AODV 26 [13a 5 2 800] ------- [2:255 5:255 1 5] [0x12 0 [1776105039 1041146866] 0.000000] (HELLO)
r 1.154184670 _5_ RTR  --- 0 AODV 26 [13a 5 4 800] ------- [4:255 5:255 1 5] [0x12 0 [1776105039 1041146866] 0.000000] (HELLO)
r 1.155980946 _5_ RTR  --- 0 AODV 26 [13a 5 8 800] ------- [8:255 5:255 1 5] [0x12 0 [1776105039 1041146866] 0.000000] (HELLO)
s 1.158238026 _7_ RTR  --- 0 AODV 44 [0 0 0 0] ------- [7:255 -1:255 1 0] [0x1 1 [7 8] 4.000000] (HELLO)
r 1.159366692 _4_ RTR  --- 0 AODV 44 [0 ffffffff 7 800] ------- [7:255 -1:255 1 0] [0x1 1 [7 8] 4.000000] (HELLO)
r 1.159366692 _6_ RTR  --- 0 AODV 44 [0 ffffffff 7 800] ------- [7:255 -1:255 1 0] [0x1 1 [7 8] 4.000000] (HELLO)
r 1.159366692 _8_ RTR  --- 0 AODV 44 [0 ffffffff 7 800] ------- [7:255 -1:255 1 0] [0x1 1 [7 8] 4.000000] (HELLO)
s 1.159366692 _4_ RTR  --- 0 AODV 26 [0 0 0 0] ------- [4:255 7:255 1 7] [0x12 0 [1776105039 1041146866] 0.000000] (HELLO)
s 1.159366692 _6_ RTR  --- 0 AODV 26 [0 0 0 0] ------- [6:255 7:255 1 7] [0x12 0 [1776105039 1041146866] 0.000000] (HELLO)
s 1.159366692 _8_ RTR  --- 0 AODV 26 [0 0 0 0] ------- [8:255 7:255 1 7] [0x12 0 [1776105039 1041146866] 0.000000] (HELLO)
r 1.160788692 _7_ RTR  --- 0 AODV 26 [13a 7 4 800] ------- [4:255 7:255 1 7] [0x12 0 [1776105039 1041146866] 0.000000] (HELLO)
r 1.162864969 _7_ RTR  --- 0 AODV 26 [13a 7 6 800] ------- [6:255 7:255 1 7] [0x12 0 [1776105039 1041146866] 0.000000] (HELLO)
r 1.164641635 _7_ RTR  --- 0 AODV 26 [13a 7 8 800] ------- [8:255 7:255 1 7] [0x12 0 [1776105039 1041146866] 0.000000] (HELLO)
s 1.600209457 _2_ RTR  --- 0 AODV 44 [0 0 0 0] ------- [2:255 -1:255 1 0] [0x1 1 [2 6] 4.000000] (HELLO)
r 1.601618124 _1_ RTR  --- 0 AODV 44 [0 ffffffff 2 800] ------- [2:255 -1:255 1 0] [0x1 1 [2 6] 4.000000] (HELLO)
r 1.601618124 _5_ RTR  --- 0 AODV 44 [0 ffffffff 2 800] ------- [2:255 -1:255 1 0] [0x1 1 [2 6] 4.000000] (HELLO)
s 1.601618124 _1_ RTR  --- 0 AODV 26 [0 0 0 0] ------- [1:255 2:255 1 2] [0x12 0 [1776105039 1041146866] 0.000000] (HELLO)
s 1.601618124 _5_ RTR  --- 0 AODV 26 [0 0 0 0] ------- [5:255 2:255 1 2] [0x12 0 [1776105039 1041146866] 0.000000] (HELLO)
r 1.603160124 _2_ RTR  --- 0 AODV 26 [13a 2 1 800] ------- [1:255 2:255 1 2] [0x12 0 [1776105039 1041146866] 0.000000] (HELLO)
r 1.604976400 _2_ RTR  --- 0 AODV 26 [13a 2 5 800] ------- [5:255 2:255 1 2] [0x12 0 [1776105039 1041146866] 0.000000] (HELLO)
s 1.772580772 _0_ RTR  --- 0 AODV 44 [0 0 0 0] ------- [0:255 -1:255 1 0] [0x1 1 [0 6] 4.000000] (HELLO)
r 1.773989439 _3_ RTR  --- 0 AODV 44 [0 ffffffff 0 800] ------- [0:255 -1:255 1 0] [0x1 1 [0 6] 4.000000] (HELLO)
r 1.773989439 _1_ RTR  --- 0 AODV 44 [0 ffffffff 0 800] ------- [0:255 -1:255 1 0] [0x1 1 [0 6] 4.000000] (HELLO)
s 1.773989439 _3_ RTR  --- 0 AODV 26 [0 0 0 0] ------- [3:255 0:255 1 0] [0x12 0 [1776105039 1041146866] 0.000000] (HELLO)
s 1.773989439 _1_ RTR  --- 0 AODV 26 [0 0 0 0] ------- [1:255 0:255 1 0] [0x12 0 [1776105039 1041146866] 0.000000] (HELLO)
r 1.777218382 _0_ RTR  --- 0 AODV 26 [13a 0 1 800] ------- [1:255 0:255 1 0] [0x12 0 [1776105039 1041146866] 0.000000] (HELLO)
r 1.779394658 _0_ RTR  --- 0 AODV 26 [13a 0 3 800] ------- [3:255 0:255 1 0] [0x12 0 [1776105039 1041146866] 0.000000] (HELLO)
s 1.834510176 _6_ RTR  --- 0 AODV 44 [0 0 0 0] ------- [6:255 -1:255 1 0] [0x1 1 [6 6] 4.000000] (HELLO)
r 1.835478843 _3_ RTR  --- 0 AODV 44 [0 ffffffff 6 800] ------- [6:255 -1:255 1 0] [0x1 1 [6 6] 4.000000] (HELLO)
r 1.835478843 _7_ RTR  --- 0 AODV 44 [0 ffffffff 6 800] ------- [6:255 -1:255 1 0] [0x1 1 [6 6] 4.000000] (HELLO)
s 1.835478843 _3_ RTR  --- 0 AODV 26 [0 0 0 0] ------- [3:255 6:255 1 6] [0x12 0 [1776105039 1041146866] 0.000000] (HELLO)
s 1.835478843 _7_ RTR  --- 0 AODV 26 [0 0 0 0] ------- [7:255 6:255 1 6] [0x12 0 [1776105039 1041146866] 0.000000] (HELLO)
r 1.836880843 _6_ RTR  --- 0 AODV 26 [13a 6 3 800] ------- [3:255 6:255 1 6] [0x12 0 [1776105039 1041146866] 0.000000] (HELLO)
r 1.838977119 _6_ RTR  --- 0 AODV 26 [13a 6 7 800] ------- [7:255 6:255 1 6] [0x12 0 [1776105039 1041146866] 0.000000] (HELLO)
s 1.938807765 _1_ RTR  --- 0 AODV 44 [0 0 0 0] ------- [1:255 -1:255 1 0] [0x1 1 [1 8] 4.000000] (HELLO)
r 1.939796431 _0_ RTR  --- 0 AODV 44 [0 ffffffff 1 800] ------- [1:255 -1:255 1 0] [0x1 1 [1 8] 4.000000] (HELLO)
r 1.939796431 _4_ RTR  --- 0 AODV 44 [0 ffffffff 1 800] ------- [1:255 -1:255 1 0] [0x1 1 [1 8] 4.000000] (HELLO)
r 1.939796431 _2_ RTR  --- 0 AODV 44 [0 ffffffff 1 800] ------- [1:255 -1:255 1 0] [0x1 1 [1 8] 4.000000] (HELLO)
s 1.939796431 _0_ RTR  --- 0 AODV 26 [0 0 0 0] ------- [0:255 1:255 1 1] [0x12 0 [1776105039 1041146866] 0.000000] (HELLO)
s 1.939796431 _4_ RTR  --- 0 AODV 26 [0 0 0 0] ------- [4:255 1:255 1 1] [0x12 0 [1776105039 1041146866] 0.000000] (HELLO)
s 1.939796431 _2_ RTR  --- 0 AODV 26 [0 0 0 0] ------- [2:255 1:255 1 1] [0x12 0 [1776105039 1041146866] 0.000000] (HELLO)
r 1.941358431 _1_ RTR  --- 0 AODV 26 [13a 1 0 800] ------- [0:255 1:255 1 1] [0x12 0 [1776105039 1041146866] 0.000000] (HELLO)
r 1.943414708 _1_ RTR  --- 0 AODV 26 [13a 1 4 800] ------- [4:255 1:255 1 1] [0x12 0 [1776105039 1041146866] 0.000000] (HELLO)
r 1.945230984 _1_ RTR  --- 0 AODV 26 [13a 1 2 800] ------- [2:255 1:255 1 1] [0x12 0 [1776105039 1041146866] 0.000000] (HELLO)
s 1.993648200 _4_ RTR  --- 0 AODV 44 [0 0 0 0] ------- [4:255 -1:255 1 0] [0x1 1 [4 10] 4.000000] (HELLO)
r 1.994996867 _1_ RTR  --- 0 AODV 44 [0 ffffffff 4 800] ------- [4:255 -1:255 1 0] [0x1 1 [4 10] 4.000000] (HELLO)
r 1.994996867 _3_ RTR  --- 0 AODV 44 [0 ffffffff 4 800] ------- [4:255 -1:255 1 0] [0x1 1 [4 10] 4.000000] (HELLO)
r 1.994996867 _7_ RTR  --- 0 AODV 44 [0 ffffffff 4 800] ------- [4:255 -1:255 1 0] [0x1 1 [4 10] 4.000000] (HELLO)
r 1.994996867 _5_ RTR  --- 0 AODV 44 [0 ffffffff 4 800] ------- [4:255 -1:255 1 0] [0x1 1 [4 10] 4.000000] (HELLO)
s 1.994996867 _1_ RTR  --- 0 AODV 26 [0 0 0 0] ------- [1:255 4:255 1 4] [0x12 0 [1776105039 1041146866] 0.000000] (HELLO)
s 1.994996867 _3_ RTR  --- 0 AODV 26 [0 0 0 0] ------- [3:255 4:255 1 4] [0x12 0 [1776105039 1041146866] 0.000000] (HELLO)
s 1.994996867 _7_ RTR  --- 0 AODV 26 [0 0 0 0] ------- [7:255 4:255 1 4] [0x12 0 [1776105039 1041146866] 0.000000] (HELLO)
s 1.994996867 _5_ RTR  --- 0 AODV 26 [0 0 0 0] ------- [5:255 4:255 1 4] [0x12 0 [1776105039 1041146866] 0.000000] (HELLO)
r 1.996398867 _4_ RTR  --- 0 AODV 26 [13a 4 1 800] ------- [1:255 4:255 1 4] [0x12 0 [1776105039 1041146866] 0.000000] (HELLO)
r 1.998195143 _4_ RTR  --- 0 AODV 26 [13a 4 3 800] ------- [3:255 4:255 1 4] [0x12 0 [1776105039 1041146866] 0.000000] (HELLO)
r 2.000131809 _4_ RTR  --- 0 AODV 26 [13a 4 5 800] ------- [5:255 4:255 1 4] [0x12 0 [1776105039 1041146866] 0.000000] (HELLO)
r 2.002108085 _4_ RTR  --- 0 AODV 26 [13a 4 7 800] ------- [7:255 4:255 1 4] [0x12 0 [1776105039 1041146866] 0.000000] (HELLO)
s 2.015314040 _7_ RTR  --- 0 AODV 44 [0 0 0 0] ------- [7:255 -1:255 1 0] [0x1 1 [7 8] 4.000000] (HELLO)
r 2.016682707 _4_ RTR  --- 0 AODV 44 [0 ffffffff 7 800] ------- [7:255 -1:255 1 0] [0x1 1 [7 8] 4.000000] (HELLO)
r 2.016682707 _6_ RTR  --- 0 AODV 44 [0 ffffffff 7 800] ------- [7:255 -1:255 1 0] [0x1 1 [7 8] 4.000000] (HELLO)
r 2.016682707 _8_ RTR  --- 0 AODV 44 [0 ffffffff 7 800] ------- [7:255 -1:255 1 0] [0x1 1 [7 8] 4.000000] (HELLO)
s 2.016682707 _4_ RTR  --- 0 AODV 26 [0 0 0 0] ------- [4:255 7:255 1 7] [0x12 0 [1776105039 1041146866] 0.000000] (HELLO)
s 2.016682707 _6_ RTR  --- 0 AODV 26 [0 0 0 0] ------- [6:255 7:255 1 7] [0x12 0 [1776105039 1041146866] 0.000000] (HELLO)
s 2.016682707 _8_ RTR  --- 0 AODV 26 [0 0 0 0] ------- [8:255 7:255 1 7] [0x12 0 [1776105039 1041146866] 0.000000] (HELLO)
r 2.018084707 _7_ RTR  --- 0 AODV 26 [13a 7 6 800] ------- [6:255 7:255 1 7] [0x12 0 [1776105039 1041146866] 0.000000] (HELLO)
r 2.020361373 _7_ RTR  --- 0 AODV 26 [13a 7 8 800] ------- [8:255 7:255 1 7] [0x12 0 [1776105039 1041146866] 0.000000] (HELLO)
r 2.022117649 _7_ RTR  --- 0 AODV 26 [13a 7 4 800] ------- [4:255 7:255 1 7] [0x12 0 [1776105039 1041146866] 0.000000] (HELLO)
s 2.024500953 _8_ RTR  --- 0 AODV 44 [0 0 0 0] ------- [8:255 -1:255 1 0] [0x1 1 [8 6] 4.000000] (HELLO)
r 2.025769620 _5_ RTR  --- 0 AODV 44 [0 ffffffff 8 800] ------- [8:255 -1:255 1 0] [0x1 1 [8 6] 4.000000] (HELLO)
r 2.025769620 _7_ RTR  --- 0 AODV 44 [0 ffffffff 8 800] ------- [8:255 -1:255 1 0] [0x1 1 [8 6] 4.000000] (HELLO)
s 2.025769620 _5_ RTR  --- 0 AODV 26 [0 0 0 0] ------- [5:255 8:255 1 8] [0x12 0 [1776105039 1041146866] 0.000000] (HELLO)
s 2.025769620 _7_ RTR  --- 0 AODV 26 [0 0 0 0] ------- [7:255 8:255 1 8] [0x12 0 [1776105039 1041146866] 0.000000] (HELLO)
r 2.027191620 _8_ RTR  --- 0 AODV 26 [13a 8 7 800] ------- [7:255 8:255 1 8] [0x12 0 [1776105039 1041146866] 0.000000] (HELLO)
r 2.029347896 _8_ RTR  --- 0 AODV 26 [13a 8 5 800] ------- [5:255 8:255 1 8] [0x12 0 [1776105039 1041146866] 0.000000] (HELLO)
s 2.032064686 _3_ RTR  --- 0 AODV 44 [0 0 0 0] ------- [3:255 -1:255 1 0] [0x1 1 [3 8] 4.000000] (HELLO)
r 2.033393352 _0_ RTR  --- 0 AODV 44 [0 ffffffff 3 800] ------- [3:255 -1:255 1 0] [0x1 1 [3 8] 4.000000] (HELLO)
r 2.033393352 _6_ RTR  --- 0 AODV 44 [0 ffffffff 3 800] ------- [3:255 -1:255 1 0] [0x1 1 [3 8] 4.000000] (HELLO)
r 2.033393352 _4_ RTR  --- 0 AODV 44 [0 ffffffff 3 800] ------- [3:255 -1:255 1 0] [0x1 1 [3 8] 4.000000] (HELLO)
s 2.033393352 _0_ RTR  --- 0 AODV 26 [0 0 0 0] ------- [0:255 3:255 1 3] [0x12 0 [1776105039 1041146866] 0.000000] (HELLO)
s 2.033393352 _6_ RTR  --- 0 AODV 26 [0 0 0 0] ------- [6:255 3:255 1 3] [0x12 0 [1776105039 1041146866] 0.000000] (HELLO)
s 2.033393352 _4_ RTR  --- 0 AODV 26 [0 0 0 0] ------- [4:255 3:255 1 3] [0x12 0 [1776105039 1041146866] 0.000000] (HELLO)
r 2.034895352 _3_ RTR  --- 0 AODV 26 [13a 3 4 800] ------- [4:255 3:255 1 3] [0x12 0 [1776105039 1041146866] 0.000000] (HELLO)
r 2.036671628 _3_ RTR  --- 0 AODV 26 [13a 3 0 800] ------- [0:255 3:255 1 3] [0x12 0 [1776105039 1041146866] 0.000000] (HELLO)
r 2.038588295 _3_ RTR  --- 0 AODV 26 [13a 3 6 800] ------- [6:255 3:255 1 3] [0x12 0 [1776105039 1041146866] 0.000000] (HELLO)
s 2.159951166 _5_ RTR  --- 0 AODV 44 [0 0 0 0] ------- [5:255 -1:255 1 0] [0x1 1 [5 8] 4.000000] (HELLO)
r 2.161279833 _2_ RTR  --- 0 AODV 44 [0 ffffffff 5 800] ------- [5:255 -1:255 1 0] [0x1 1 [5 8] 4.000000] (HELLO)
r 2.161279833 _4_ RTR  --- 0 AODV 44 [0 ffffffff 5 800] ------- [5:255 -1:255 1 0] [0x1 1 [5 8] 4.000000] (HELLO)
r 2.161279833 _8_ RTR  --- 0 AODV 44 [0 ffffffff 5 800] ------- [5:255 -1:255 1 0] [0x1 1 [5 8] 4.000000] (HELLO)
s 2.161279833 _2_ RTR  --- 0 AODV 26 [0 0 0 0] ------- [2:255 5:255 1 5] [0x12 0 [1776105039 1041146866] 0.000000] (HELLO)
s 2.161279833 _4_ RTR  --- 0 AODV 26 [0 0 0 0] ------- [4:255 5:255 1 5] [0x12 0 [1776105039 1041146866] 0.000000] (HELLO)
s 2.161279833 _8_ RTR  --- 0 AODV 26 [0 0 0 0] ------- [8:255 5:255 1 5] [0x12 0 [1776105039 1041146866] 0.000000] (HELLO)
r 2.162961833 _5_ RTR  --- 0 AODV 26 [13a 5 8 800] ------- [8:255 5:255 1 5] [0x12 0 [1776105039 1041146866] 0.000000] (HELLO)
r 2.164718109 _5_ RTR  --- 0 AODV 26 [13a 5 4 800] ------- [4:255 5:255 1 5] [0x12 0 [1776105039 1041146866] 0.000000] (HELLO)
r 2.166634385 _5_ RTR  --- 0 AODV 26 [13a 5 2 800] ------- [2:255 5:255 1 5] [0x12 0 [1776105039 1041146866] 0.000000] (HELLO)
s 2.429466316 _2_ RTR  --- 0 AODV 44 [0 0 0 0] ------- [2:255 -1:255 1 0] [0x1 1 [2 6] 4.000000] (HELLO)
r 2.430494982 _1_ RTR  --- 0 AODV 44 [0 ffffffff 2 800] ------- [2:255 -1:255 1 0] [0x1 1 [2 6] 4.000000] (HELLO)
r 2.430494982 _5_ RTR  --- 0 AODV 44 [0 ffffffff 2 800] ------- [2:255 -1:255 1 0] [0x1 1 [2 6] 4.000000] (HELLO)
s 2.430494982 _1_ RTR  --- 0 AODV 26 [0 0 0 0] ------- [1:255 2:255 1 2] [0x12 0 [1776105039 1041146866] 0.000000] (HELLO)
s 2.430494982 _5_ RTR  --- 0 AODV 26 [0 0 0 0] ------- [5:255 2:255 1 2] [0x12 0 [1776105039 1041146866] 0.000000] (HELLO)
r 2.431996982 _2_ RTR  --- 0 AODV 26 [13a 2 5 800] ------- [5:255 2:255 1 2] [0x12 0 [1776105039 1041146866] 0.000000] (HELLO)
r 2.433953259 _2_ RTR  --- 0 AODV 26 [13a 2 1 800] ------- [1:255 2:255 1 2] [0x12 0 [1776105039 1041146866] 0.000000] (HELLO)
s 2.802174265 _8_ RTR  --- 0 AODV 44 [0 0 0 0] ------- [8:255 -1:255 1 0] [0x1 1 [8 6] 4.000000] (HELLO)
r 2.803302931 _5_ RTR  --- 0 AODV 44 [0 ffffffff 8 800] ------- [8:255 -1:255 1 0] [0x1 1 [8 6] 4.000000] (HELLO)
r 2.803302931 _7_ RTR  --- 0 AODV 44 [0 ffffffff 8 800] ------- [8:255 -1:255 1 0] [0x1 1 [8 6] 4.000000] (HELLO)
s 2.803302931 _5_ RTR  --- 0 AODV 26 [0 0 0 0] ------- [5:255 8:255 1 8] [0x12 0 [1776105039 1041146866] 0.000000] (HELLO)
s 2.803302931 _7_ RTR  --- 0 AODV 26 [0 0 0 0] ------- [7:255 8:255 1 8] [0x12 0 [1776105039 1041146866] 0.000000] (HELLO)
r 2.804944931 _8_ RTR  --- 0 AODV 26 [13a 8 7 800] ------- [7:255 8:255 1 8] [0x12 0 [1776105039 1041146866] 0.000000] (HELLO)
s 2.805431722 _6_ RTR  --- 0 AODV 44 [0 0 0 0] ------- [6:255 -1:255 1 0] [0x1 1 [6 6] 4.000000] (HELLO)
r 2.806841208 _8_ RTR  --- 0 AODV 26 [13a 8 5 800] ------- [5:255 8:255 1 8] [0x12 0 [1776105039 1041146866] 0.000000] (HELLO)
r 2.808439208 _3_ RTR  --- 0 AODV 44 [0 ffffffff 6 800] ------- [6:255 -1:255 1 0] [0x1 1 [6 6] 4.000000] (HELLO)
r 2.808439208 _7_ RTR  --- 0 AODV 44 [0 ffffffff 6 800] ------- [6:255 -1:255 1 0] [0x1 1 [6 6] 4.000000] (HELLO)
s 2.808439208 _3_ RTR  --- 0 AODV 26 [0 0 0 0] ------- [3:255 6:255 1 6] [0x12 0 [1776105039 1041146866] 0.000000] (HELLO)
s 2.808439208 _7_ RTR  --- 0 AODV 26 [0 0 0 0] ------- [7:255 6:255 1 6] [0x12 0 [1776105039 1041146866] 0.000000] (HELLO)
r 2.810221208 _6_ RTR  --- 0 AODV 26 [13a 6 3 800] ------- [3:255 6:255 1 6] [0x12 0 [1776105039 1041146866] 0.000000] (HELLO)