Sconfig 0.00000 tap: on snoop: rts? on errs? on
Sconfig 0.00000 salvage: on !bd replies? on
Sconfig 0.00000 grat error: on grat reply: on
Sconfig 0.00000 $reply for props: on ring 0 search: on
Sconfig 0.00000 using MOBICACHE
s 15.000000000 _1_ AGT  --- 0 cbr 512 [0 0 0 0] ------- [1:0 3:0 32 0] [0] 0 0
r 15.000000000 _1_ RTR  --- 0 cbr 512 [0 0 0 0] ------- [1:0 3:0 32 0] [0] 0 0
s 15.005035754 _1_ RTR  --- 1 DSR 32 [0 0 0 0] ------- [1:255 3:255 32 0] 1 [1 1] [0 1 0 0->0] [0 0 0 0->0]
r 15.006007940 _7_ RTR  --- 1 DSR 32 [0 ffffffff 1 800] ------- [1:255 3:255 32 0] 1 [1 1] [0 1 0 0->0] [0 0 0 0->0]
r 15.006008315 _0_ RTR  --- 1 DSR 32 [0 ffffffff 1 800] ------- [1:255 3:255 32 0] 1 [1 1] [0 1 0 0->0] [0 0 0 0->0]
s 15.054106129 _1_ AGT  --- 3 cbr 512 [0 0 0 0] ------- [1:0 3:0 32 0] [1] 0 0
r 15.054106129 _1_ RTR  --- 3 cbr 512 [0 0 0 0] ------- [1:0 3:0 32 0] [1] 0 0
s 15.058229233 _1_ RTR  --- 4 DSR 32 [0 0 0 0] ------- [1:255 3:255 32 0] 1 [1 2] [0 2 0 0->16] [0 0 0 0->0]
r 15.059601420 _7_ RTR  --- 4 DSR 32 [0 ffffffff 1 800] ------- [1:255 3:255 32 0] 1 [1 2] [0 2 0 0->16] [0 0 0 0->0]
r 15.059601794 _0_ RTR  --- 4 DSR 32 [0 ffffffff 1 800] ------- [1:255 3:255 32 0] 1 [1 2] [0 2 0 0->16] [0 0 0 0->0]
f 15.060371865 _0_ RTR  --- 4 DSR 48 [0 ffffffff 1 800] ------- [1:255 3:255 32 0] 2 [1 2] [0 2 0 0->16] [0 0 0 0->0]
r 15.061292240 _7_ RTR  --- 4 DSR 48 [0 ffffffff 0 800] ------- [1:255 3:255 32 0] 2 [1 2] [0 2 0 0->16] [0 0 0 0->0]
r 15.061292298 _2_ RTR  --- 4 DSR 48 [0 ffffffff 0 800] ------- [1:255 3:255 32 0] 2 [1 2] [0 2 0 0->16] [0 0 0 0->0]
r 15.061292426 _1_ RTR  --- 4 DSR 48 [0 ffffffff 0 800] ------- [1:255 3:255 32 0] 2 [1 2] [0 2 0 0->16] [0 0 0 0->0]
r 15.061292667 _5_ RTR  --- 4 DSR 48 [0 ffffffff 0 800] ------- [1:255 3:255 32 0] 2 [1 2] [0 2 0 0->16] [0 0 0 0->0]
r 15.061292692 _4_ RTR  --- 4 DSR 48 [0 ffffffff 0 800] ------- [1:255 3:255 32 0] 2 [1 2] [0 2 0 0->16] [0 0 0 0->0]
f 15.061903261 _5_ RTR  --- 4 DSR 68 [0 ffffffff 0 800] ------- [1:255 3:255 32 0] 3 [1 2] [0 2 0 0->16] [0 0 0 0->0]
f 15.063129014 _2_ RTR  --- 4 DSR 68 [0 ffffffff 0 800] ------- [1:255 3:255 32 0] 3 [1 2] [0 2 0 0->16] [0 0 0 0->0]
r 15.063483970 _4_ RTR  --- 4 DSR 68 [0 ffffffff 5 800] ------- [1:255 3:255 32 0] 3 [1 2] [0 2 0 0->16] [0 0 0 0->0]
r 15.063484063 _0_ RTR  --- 4 DSR 68 [0 ffffffff 5 800] ------- [1:255 3:255 32 0] 3 [1 2] [0 2 0 0->16] [0 0 0 0->0]
f 15.064256170 _4_ RTR  --- 4 DSR 68 [0 ffffffff 0 800] ------- [1:255 3:255 32 0] 3 [1 2] [0 2 0 0->16] [0 0 0 0->0]
r 15.064858763 _0_ RTR  --- 4 DSR 68 [0 ffffffff 2 800] ------- [1:255 3:255 32 0] 3 [1 2] [0 2 0 0->16] [0 0 0 0->0]
r 15.064858808 _6_ RTR  --- 4 DSR 68 [0 ffffffff 2 800] ------- [1:255 3:255 32 0] 3 [1 2] [0 2 0 0->16] [0 0 0 0->0]
r 15.064859027 _7_ RTR  --- 4 DSR 68 [0 ffffffff 2 800] ------- [1:255 3:255 32 0] 3 [1 2] [0 2 0 0->16] [0 0 0 0->0]
r 15.064859037 _3_ RTR  --- 4 DSR 68 [0 ffffffff 2 800] ------- [1:255 3:255 32 0] 3 [1 2] [0 2 0 0->16] [0 0 0 0->0]
r 15.064859086 _4_ RTR  --- 4 DSR 68 [0 ffffffff 2 800] ------- [1:255 3:255 32 0] 3 [1 2] [0 2 0 0->16] [0 0 0 0->0]
f 15.065640801 _6_ RTR  --- 4 DSR 92 [0 ffffffff 2 800] ------- [1:255 3:255 32 0] 4 [1 2] [0 2 0 0->16] [0 0 0 0->0]
r 15.065989723 _3_ RTR  --- 4 DSR 68 [0 ffffffff 4 800] ------- [1:255 3:255 32 0] 3 [1 2] [0 2 0 0->16] [0 0 0 0->0]
r 15.065989794 _5_ RTR  --- 4 DSR 68 [0 ffffffff 4 800] ------- [1:255 3:255 32 0] 3 [1 2] [0 2 0 0->16] [0 0 0 0->0]
r 15.065989842 _2_ RTR  --- 4 DSR 68 [0 ffffffff 4 800] ------- [1:255 3:255 32 0] 3 [1 2] [0 2 0 0->16] [0 0 0 0->0]
r 15.065989873 _6_ RTR  --- 4 DSR 68 [0 ffffffff 4 800] ------- [1:255 3:255 32 0] 3 [1 2] [0 2 0 0->16] [0 0 0 0->0]
r 15.065989913 _0_ RTR  --- 4 DSR 68 [0 ffffffff 4 800] ------- [1:255 3:255 32 0] 3 [1 2] [0 2 0 0->16] [0 0 0 0->0]
s 15.066031031 _3_ RTR  --- 7 DSR 60 [0 0 0 0] ------- [3:255 1:255 254 2] 4 [0 2] [1 2 4 1->3] [0 0 0 0->0]
r 15.067372207 _3_ RTR  --- 4 DSR 92 [0 ffffffff 6 800] ------- [1:255 3:255 32 0] 4 [1 2] [0 2 0 0->16] [0 0 0 0->0]
r 15.067372351 _2_ RTR  --- 4 DSR 92 [0 ffffffff 6 800] ------- [1:255 3:255 32 0] 4 [1 2] [0 2 0 0->16] [0 0 0 0->0]
r 15.067372661 _4_ RTR  --- 4 DSR 92 [0 ffffffff 6 800] ------- [1:255 3:255 32 0] 4 [1 2] [0 2 0 0->16] [0 0 0 0->0]
f 15.067894563 _7_ RTR  --- 4 DSR 48 [0 ffffffff 1 800] ------- [1:255 3:255 32 0] 2 [1 2] [0 2 0 0->16] [0 0 0 0->0]
r 15.069196328 _2_ RTR  --- 7 DSR 60 [13a 2 3 800] ------- [3:255 1:255 254 2] 4 [0 2] [1 2 4 1->3] [0 0 0 0->0]
f 15.069196328 _2_ RTR  --- 7 DSR 60 [13a 2 3 800] ------- [3:255 1:255 253 0] 4 [0 2] [1 2 4 1->3] [0 0 0 0->0]
s 15.070233169 _3_ RTR  --- 8 DSR 60 [0 0 0 0] ------- [3:255 1:255 254 4] 4 [0 2] [1 2 4 1->3] [0 0 0 0->0]
r 15.070431195 _1_ RTR  --- 4 DSR 48 [0 ffffffff 7 800] ------- [1:255 3:255 32 0] 2 [1 2] [0 2 0 0->16] [0 0 0 0->0]
r 15.070431383 _0_ RTR  --- 4 DSR 48 [0 ffffffff 7 800] ------- [1:255 3:255 32 0] 2 [1 2] [0 2 0 0->16] [0 0 0 0->0]
r 15.070431705 _2_ RTR  --- 4 DSR 48 [0 ffffffff 7 800] ------- [1:255 3:255 32 0] 2 [1 2] [0 2 0 0->16] [0 0 0 0->0]
r 15.072155002 _0_ RTR  --- 7 DSR 60 [13a 0 2 800] ------- [3:255 1:255 253 0] 4 [0 2] [1 2 4 1->3] [0 0 0 0->0]
f 15.072155002 _0_ RTR  --- 7 DSR 60 [13a 0 2 800] ------- [3:255 1:255 252 1] 4 [0 2] [1 2 4 1->3] [0 0 0 0->0]
s 15.074337189 _3_ RTR  --- 9 DSR 68 [0 0 0 0] ------- [3:255 1:255 254 6] 5 [0 2] [1 2 5 1->3] [0 0 0 0->0]
r 15.074612685 _1_ RTR  --- 7 DSR 60 [13a 1 0 800] ------- [3:255 1:255 252 1] 4 [0 2] [1 2 4 1->3] [0 0 0 0->0]
SFESTs 15.074612685 _1_ 0 [1 -> 3] 1(1) to 0 [1 |0 2 3 ]
SFESTs 15.074612685 _1_ 3 [1 -> 3] 1(1) to 0 [1 |0 2 3 ]
s 15.074612685 _1_ RTR  --- 0 cbr 556 [0 0 0 0] ------- [1:0 3:0 32 0] [0] 0 0
r 15.080558368 _0_ RTR  --- 0 cbr 556 [13a 0 1 800] ------- [1:0 3:0 32 0] [0] 1 0
f 15.080558368 _0_ RTR  --- 0 cbr 556 [13a 0 1 800] ------- [1:0 3:0 31 2] [0] 1 0
r 15.086663665 _2_ RTR  --- 0 cbr 556 [13a 2 0 800] ------- [1:0 3:0 31 2] [0] 2 0
f 15.086663665 _2_ RTR  --- 0 cbr 556 [13a 2 0 800] ------- [1:0 3:0 30 3] [0] 2 0
r 15.088952198 _4_ RTR  --- 8 DSR 60 [13a 4 3 800] ------- [3:255 1:255 254 4] 4 [0 2] [1 2 4 1->3] [0 0 0 0->0]
f 15.088952198 _4_ RTR  --- 8 DSR 60 [13a 4 3 800] ------- [3:255 1:255 253 0] 4 [0 2] [1 2 4 1->3] [0 0 0 0->0]
r 15.097725662 _3_ RTR  --- 0 cbr 556 [13a 3 2 800] ------- [1:0 3:0 30 3] [0] 3 0
r 15.097725662 _3_ AGT  --- 0 cbr 512 [13a 3 2 800] ------- [1:0 3:0 30 3] [0] 3 0
s 15.097912575 _1_ AGT  --- 10 cbr 512 [0 0 0 0] ------- [1:0 3:0 32 0] [2] 0 0
r 15.097912575 _1_ RTR  --- 10 cbr 512 [0 0 0 0] ------- [1:0 3:0 32 0] [2] 0 0
SFESTs 15.097912575 _1_ 10 [1 -> 3] 1(1) to 0 [1 |0 2 3 ]
s 15.097912575 _1_ RTR  --- 10 cbr 556 [0 0 0 0] ------- [1:0 3:0 32 0] [2] 0 0
r 15.100026664 _6_ RTR  --- 9 DSR 68 [13a 6 3 800] ------- [3:255 1:255 254 6] 5 [0 2] [1 2 5 1->3] [0 0 0 0->0]
f 15.100026664 _6_ RTR  --- 9 DSR 68 [13a 6 3 800] ------- [3:255 1:255 253 2] 5 [0 2] [1 2 5 1->3] [0 0 0 0->0]
r 15.102508097 _2_ RTR  --- 9 DSR 68 [13a 2 6 800] ------- [3:255 1:255 253 2] 5 [0 2] [1 2 5 1->3] [0 0 0 0->0]
f 15.102508097 _2_ RTR  --- 9 DSR 68 [13a 2 6 800] ------- [3:255 1:255 252 0] 5 [0 2] [1 2 5 1->3] [0 0 0 0->0]
s 15.104612685 _1_ RTR  --- 3 cbr 556 [0 0 0 0] ------- [1:0 3:0 32 0] [1] 0 0
r 15.109741923 _0_ RTR  --- 10 cbr 556 [13a 0 1 800] ------- [1:0 3:0 32 0] [2] 1 0
f 15.109741923 _0_ RTR  --- 10 cbr 556 [13a 0 1 800] ------- [1:0 3:0 31 2] [2] 1 0
r 15.115647220 _2_ RTR  --- 10 cbr 556 [13a 2 0 800] ------- [1:0 3:0 31 2] [2] 2 0
f 15.115647220 _2_ RTR  --- 10 cbr 556 [13a 2 0 800] ------- [1:0 3:0 30 3] [2] 2 0
r 15.117768517 _0_ RTR  --- 9 DSR 68 [13a 0 2 800] ------- [3:255 1:255 252 0] 5 [0 2] [1 2 5 1->3] [0 0 0 0->0]
f 15.117768517 _0_ RTR  --- 9 DSR 68 [13a 0 2 800] ------- [3:255 1:255 251 1] 5 [0 2] [1 2 5 1->3] [0 0 0 0->0]
r 15.119910200 _1_ RTR  --- 9 DSR 68 [13a 1 0 800] ------- [3:255 1:255 251 1] 5 [0 2] [1 2 5 1->3] [0 0 0 0->0]
r 15.126235883 _0_ RTR  --- 3 cbr 556 [13a 0 1 800] ------- [1:0 3:0 32 0] [1] 1 0
f 15.126235883 _0_ RTR  --- 3 cbr 556 [13a 0 1 800] ------- [1:0 3:0 31 2] [1] 1 0
r 15.132241180 _2_ RTR  --- 3 cbr 556 [13a 2 0 800] ------- [1:0 3:0 31 2] [1] 2 0
f 15.132241180 _2_ RTR  --- 3 cbr 556 [13a 2 0 800] ------- [1:0 3:0 30 3] [1] 2 0
r 15.138427300 _3_ RTR  --- 10 cbr 556 [13a 3 2 800] ------- [1:0 3:0 30 3] [2] 3 0
r 15.138427300 _3_ AGT  --- 10 cbr 512 [13a 3 2 800] ------- [1:0 3:0 30 3] [2] 3 0
r 15.144854128 _3_ RTR  --- 3 cbr 556 [13a 3 2 800] ------- [1:0 3:0 30 3] [1] 3 0
r 15.144854128 _3_ AGT  --- 3 cbr 512 [13a 3 2 800] ------- [1:0 3:0 30 3] [1] 3 0
r 15.148013243 _0_ RTR  --- 8 DSR 60 [13a 0 4 800] ------- [3:255 1:255 253 0] 4 [0 2] [1 2 4 1->3] [0 0 0 0->0]
f 15.148013243 _0_ RTR  --- 8 DSR 60 [13a 0 4 800] ------- [3:255 1:255 252 1] 4 [0 2] [1 2 4 1->3] [0 0 0 0->0]
r 15.150190926 _1_ RTR  --- 8 DSR 60 [13a 1 0 800] ------- [3:255 1:255 252 1] 4 [0 2] [1 2 4 1->3] [0 0 0 0->0]
s 15.168283840 _1_ AGT  --- 11 cbr 512 [0 0 0 0] ------- [1:0 3:0 32 0] [3] 0 0
r 15.168283840 _1_ RTR  --- 11 cbr 512 [0 0 0 0] ------- [1:0 3:0 32 0] [3] 0 0
SFs 15.168283840 _1_ 11 [1 -> 3] 1(0) to 0 
s 15.168283840 _1_ RTR  --- 11 cbr 532 [0 0 0 0] ------- [1:0 3:0 32 0] [3] 0 0
r 15.174193523 _0_ RTR  --- 11 cbr 532 [13a 0 1 800] ------- [1:0 3:0 32 0] [3] 1 0
SFf 15.174193523 _0_ 11 [1 -> 3] 1 to 2
f 15.174193523 _0_ RTR  --- 11 cbr 532 [13a 0 1 800] ------- [1:0 3:0 31 2] [3] 1 0
r 15.180066820 _2_ RTR  --- 11 cbr 532 [13a 2 0 800] ------- [1:0 3:0 31 2] [3] 2 0
SFf 15.180066820 _2_ 11 [1 -> 3] 1 to 3
f 15.180066820 _2_ RTR  --- 11 cbr 532 [13a 2 0 800] ------- [1:0 3:0 30 3] [3] 2 0
r 15.186060941 _3_ RTR  --- 11 cbr 532 [13a 3 2 800] ------- [1:0 3:0 30 3] [3] 3 0
r 15.186060941 _3_ AGT  --- 11 cbr 512 [13a 3 2 800] ------- [1:0 3:0 30 3] [3] 3 0
s 15.221638632 _1_ AGT  --- 12 cbr 512 [0 0 0 0] ------- [1:0 3:0 32 0] [4] 0 0
r 15.221638632 _1_ RTR  --- 12 cbr 512 [0 0 0 0] ------- [1:0 3:0 32 0] [4] 0 0
SFs 15.221638632 _1_ 12 [1 -> 3] 1(0) to 0 
s 15.221638632 _1_ RTR  --- 12 cbr 532 [0 0 0 0] ------- [1:0 3:0 32 0] [4] 0 0
r 15.227128315 _0_ RTR  --- 12 cbr 532 [13a 0 1 800] ------- [1:0 3:0 32 0] [4] 1 0
SFf 15.227128315 _0_ 12 [1 -> 3] 1 to 2
f 15.227128315 _0_ RTR  --- 12 cbr 532 [13a 0 1 800] ------- [1:0 3:0 31 2] [4] 1 0
r 15.233181612 _2_ RTR  --- 12 cbr 532 [13a 2 0 800] ------- [1:0 3:0 31 2] [4] 2 0
SFf 15.233181612 _2_ 12 [1 -> 3] 1 to 3
f 15.233181612 _2_ RTR  --- 12 cbr 532 [13a 2 0 800] ------- [1:0 3:0 30 3] [4] 2 0
r 15.238935732 _3_ RTR  --- 12 cbr 532 [13a 3 2 800] ------- [1:0 3:0 30 3] [4] 3 0
r 15.238935732 _3_ AGT  --- 12 cbr 512 [13a 3 2 800] ------- [1:0 3:0 30 3] [4] 3 0
s 15.263469074 _1_ AGT  --- 13 cbr 512 [0 0 0 0] ------- [1:0 3:0 32 0] [5] 0 0
r 15.263469074 _1_ RTR  --- 13 cbr 512 [0 0 0 0] ------- [1:0 3:0 32 0] [5] 0 0
SFs 15.263469074 _1_ 13 [1 -> 3] 1(0) to 0 
s 15.263469074 _1_ RTR  --- 13 cbr 532 [0 0 0 0] ------- [1:0 3:0 32 0] [5] 0 0
r 15.269158757 _0_ RTR  --- 13 cbr 532 [13a 0 1 800] ------- [1:0 3:0 32 0] [5] 1 0
SFf 15.269158757 _0_ 13 [1 -> 3] 1 to 2
f 15.269158757 _0_ RTR  --- 13 cbr 532 [13a 0 1 800] ------- [1:0 3:0 31 2] [5] 1 0
r 15.275072054 _2_ RTR  --- 13 cbr 532 [13a 2 0 800] ------- [1:0 3:0 31 2] [5] 2 0
SFf 15.275072054 _2_ 13 [1 -> 3] 1 to 3
f 15.275072054 _2_ RTR  --- 13 cbr 532 [13a 2 0 800] ------- [1:0 3:0 30 3] [5] 2 0
r 15.280886175 _3_ RTR  --- 13 cbr 532 [13a 3 2 800] ------- [1:0 3:0 30 3] [5] 3 0
r 15.280886175 _3_ AGT  --- 13 cbr 512 [13a 3 2 800] ------- [1:0 3:0 30 3] [5] 3 0
s 15.328483475 _1_ AGT  --- 14 cbr 512 [0 0 0 0] ------- [1:0 3:0 32 0] [6] 0 0
r 15.328483475 _1_ RTR  --- 14 cbr 512 [0 0 0 0] ------- [1:0 3:0 32 0] [6] 0 0
SFs 15.328483475 _1_ 14 [1 -> 3] 1(0) to 0 
s 15.328483475 _1_ RTR  --- 14 cbr 532 [0 0 0 0] ------- [1:0 3:0 32 0] [6] 0 0
r 15.334453158 _0_ RTR  --- 14 cbr 532 [13a 0 1 800] ------- [1:0 3:0 32 0] [6] 1 0
SFf 15.334453158 _0_ 14 [1 -> 3] 1 to 2
f 15.334453158 _0_ RTR  --- 14 cbr 532 [13a 0 1 800] ------- [1:0 3:0 31 2] [6] 1 0
r 15.340246455 _2_ RTR  --- 14 cbr 532 [13a 2 0 800] ------- [1:0 3:0 31 2] [6] 2 0
SFf 15.340246455 _2_ 14 [1 -> 3] 1 to 3
f 15.340246455 _2_ RTR  --- 14 cbr 532 [13a 2 0 800] ------- [1:0 3:0 30 3] [6] 2 0
r 15.346420575 _3_ RTR  --- 14 cbr 532 [13a 3 2 800] ------- [1:0 3:0 30 3] [6] 3 0
r 15.346420575 _3_ AGT  --- 14 cbr 512 [13a 3 2 800] ------- [1:0 3:0 30 3] [6] 3 0
s 15.388833653 _1_ AGT  --- 15 cbr 512 [0 0 0 0] ------- [1:0 3:0 32 0] [7] 0 0
r 15.388833653 _1_ RTR  --- 15 cbr 512 [0 0 0 0] ------- [1:0 3:0 32 0] [7] 0 0
SFs 15.388833653 _1_ 15 [1 -> 3] 1(0) to 0 
s 15.388833653 _1_ RTR  --- 15 cbr 532 [0 0 0 0] ------- [1:0 3:0 32 0] [7] 0 0
r 15.394543336 _0_ RTR  --- 15 cbr 532 [13a 0 1 800] ------- [1:0 3:0 32 0] [7] 1 0
SFf 15.394543336 _0_ 15 [1 -> 3] 1 to 2
f 15.394543336 _0_ RTR  --- 15 cbr 532 [13a 0 1 800] ------- [1:0 3:0 31 2] [7] 1 0
r 15.400396633 _2_ RTR  --- 15 cbr 532 [13a 2 0 800] ------- [1:0 3:0 31 2] [7] 2 0
SFf 15.400396633 _2_ 15 [1 -> 3] 1 to 3
f 15.400396633 _2_ RTR  --- 15 cbr 532 [13a 2 0 800] ------- [1:0 3:0 30 3] [7] 2 0
r 15.406330754 _3_ RTR  --- 15 cbr 532 [13a 3 2 800] ------- [1:0 3:0 30 3] [7] 3 0
r 15.406330754 _3_ AGT  --- 15 cbr 512 [13a 3 2 800] ------- [1:0 3:0 30 3] [7] 3 0
s 15.443472770 _1_ AGT  --- 16 cbr 512 [0 0 0 0] ------- [1:0 3:0 32 0] [8] 0 0
r 15.443472770 _1_ RTR  --- 16 cbr 512 [0 0 0 0] ------- [1:0 3:0 32 0] [8] 0 0
SFs 15.443472770 _1_ 16 [1 -> 3] 1(0) to 0 
s 15.443472770 _1_ RTR  --- 16 cbr 532 [0 0 0 0] ------- [1:0 3:0 32 0] [8] 0 0
r 15.448922453 _0_ RTR  --- 16 cbr 532 [13a 0 1 800] ------- [1:0 3:0 32 0] [8] 1 0
SFf 15.448922453 _0_ 16 [1 -> 3] 1 to 2
f 15.448922453 _0_ RTR  --- 16 cbr 532 [13a 0 1 800] ------- [1:0 3:0 31 2] [8] 1 0
r 15.454815750 _2_ RTR  --- 16 cbr 532 [13a 2 0 800] ------- [1:0 3:0 31 2] [8] 2 0
SFf 15.454815750 _2_ 16 [1 -> 3] 1 to 3
f 15.454815750 _2_ RTR  --- 16 cbr 532 [13a 2 0 800] ------- [1:0 3:0 30 3] [8] 2 0
r 15.461029870 _3_ RTR  --- 16 cbr 532 [13a 3 2 800] ------- [1:0 3:0 30 3] [8] 3 0
r 15.461029870 _3_ AGT  --- 16 cbr 512 [13a 3 2 800] ------- [1:0 3:0 30 3] [8] 3 0
s 15.513150969 _1_ AGT  --- 17 cbr 512 [0 0 0 0] ------- [1:0 3:0 32 0] [9] 0 0
r 15.513150969 _1_ RTR  --- 17 cbr 512 [0 0 0 0] ------- [1:0 3:0 32 0] [9] 0 0
SFs 15.513150969 _1_ 17 [1 -> 3] 1(0) to 0 
s 15.513150969 _1_ RTR  --- 17 cbr 532 [0 0 0 0] ------- [1:0 3:0 32 0] [9] 0 0
r 15.518860652 _0_ RTR  --- 17 cbr 532 [13a 0 1 800] ------- [1:0 3:0 32 0] [9] 1 0
SFf 15.518860652 _0_ 17 [1 -> 3] 1 to 2
f 15.518860652 _0_ RTR  --- 17 cbr 532 [13a 0 1 800] ------- [1:0 3:0 31 2] [9] 1 0
r 15.524913949 _2_ RTR  --- 17 cbr 532 [13a 2 0 800] ------- [1:0 3:0 31 2] [9] 2 0
SFf 15.524913949 _2_ 17 [1 -> 3] 1 to 3
f 15.524913949 _2_ RTR  --- 17 cbr 532 [13a 2 0 800] ------- [1:0 3:0 30 3] [9] 2 0
r 15.530668070 _3_ RTR  --- 17 cbr 532 [13a 3 2 800] ------- [1:0 3:0 30 3] [9] 3 0
r 15.530668070 _3_ AGT  --- 17 cbr 512 [13a 3 2 800] ------- [1:0 3:0 30 3] [9] 3 0
s 15.578792485 _1_ AGT  --- 18 cbr 512 [0 0 0 0] ------- [1:0 3:0 32 0] [10] 0 0
r 15.578792485 _1_ RTR  --- 18 cbr 512 [0 0 0 0] ------- [1:0 3:0 32 0] [10] 0 0
SFs 15.578792485 _1_ 18 [1 -> 3] 1(0) to 0 
s 15.578792485 _1_ RTR  --- 18 cbr 532 [0 0 0 0] ------- [1:0 3:0 32 0] [10] 0 0
r 15.584362168 _0_ RTR  --- 18 cbr 532 [13a 0 1 800] ------- [1:0 3:0 32 0] [10] 1 0
SFf 15.584362168 _0_ 18 [1 -> 3] 1 to 2
f 15.584362168 _0_ RTR  --- 18 cbr 532 [13a 0 1 800] ------- [1:0 3:0 31 2] [10] 1 0
r 15.590435465 _2_ RTR  --- 18 cbr 532 [13a 2 0 800] ------- [1:0 3:0 31 2] [10] 2 0
SFf 15.590435465 _2_ 18 [1 -> 3] 1 to 3
f 15.590435465 _2_ RTR  --- 18 cbr 532 [13a 2 0 800] ------- [1:0 3:0 30 3] [10] 2 0
r 15.596189585 _3_ RTR  --- 18 cbr 532 [13a 3 2 800] ------- [1:0 3:0 30 3] [10] 3 0
r 15.596189585 _3_ AGT  --- 18 cbr 512 [13a 3 2 800] ------- [1:0 3:0 30 3] [10] 3 0
s 15.651437653 _1_ AGT  --- 19 cbr 512 [0 0 0 0] ------- [1:0 3:0 32 0] [11] 0 0
r 15.651437653 _1_ RTR  --- 19 cbr 512 [0 0 0 0] ------- [1:0 3:0 32 0] [11] 0 0
SFs 15.651437653 _1_ 19 [1 -> 3] 1(0) to 0 
s 15.651437653 _1_ RTR  --- 19 cbr 532 [0 0 0 0] ------- [1:0 3:0 32 0] [11] 0 0
r 15.657407336 _0_ RTR  --- 19 cbr 532 [13a 0 1 800] ------- [1:0 3:0 32 0] [11] 1 0
SFf 15.657407336 _0_ 19 [1 -> 3] 1 to 2
f 15.657407336 _0_ RTR  --- 19 cbr 532 [13a 0 1 800] ------- [1:0 3:0 31 2] [11] 1 0
r 15.663700633 _2_ RTR  --- 19 cbr 532 [13a 2 0 800] ------- [1:0 3:0 31 2] [11] 2 0
SFf 15.663700633 _2_ 19 [1 -> 3] 1 to 3
f 15.663700633 _2_ RTR  --- 19 cbr 532 [13a 2 0 800] ------- [1:0 3:0 30 3] [11] 2 0
r 15.669874753 _3_ RTR  --- 19 cbr 532 [13a 3 2 800] ------- [1:0 3:0 30 3] [11] 3 0
r 15.669874753 _3_ AGT  --- 19 cbr 512 [13a 3 2 800] ------- [1:0 3:0 30 3] [11] 3 0
s 15.725593325 _1_ AGT  --- 20 cbr 512 [0 0 0 0] ------- [1:0 3:0 32 0] [12] 0 0
r 15.725593325 _1_ RTR  --- 20 cbr 512 [0 0 0 0] ------- [1:0 3:0 32 0] [12] 0 0
SFs 15.725593325 _1_ 20 [1 -> 3] 1(0) to 0 
s 15.725593325 _1_ RTR  --- 20 cbr 532 [0 0 0 0] ------- [1:0 3:0 32 0] [12] 0 0
r 15.731523008 _0_ RTR  --- 20 cbr 532 [13a 0 1 800] ------- [1:0 3:0 32 0] [12] 1 0
SFf 15.731523008 _0_ 20 [1 -> 3] 1 to 2
f 15.731523008 _0_ RTR  --- 20 cbr 532 [13a 0 1 800] ------- [1:0 3:0 31 2] [12] 1 0
r 15.737356305 _2_ RTR  --- 20 cbr 532 [13a 2 0 800] ------- [1:0 3:0 31 2] [12] 2 0
SFf 15.737356305 _2_ 20 [1 -> 3] 1 to 3
f 15.737356305 _2_ RTR  --- 20 cbr 532 [13a 2 0 800] ------- [1:0 3:0 30 3] [12] 2 0
r 15.743430426 _3_ RTR  --- 20 cbr 532 [13a 3 2 800] ------- [1:0 3:0 30 3] [12] 3 0
r 15.743430426 _3_ AGT  --- 20 cbr 512 [13a 3 2 800] ------- [1:0 3:0 30 3] [12] 3 0
s 15.773101505 _1_ AGT  --- 21 cbr 512 [0 0 0 0] ------- [1:0 3:0 32 0] [13] 0 0
r 15.773101505 _1_ RTR  --- 21 cbr 512 [0 0 0 0] ------- [1:0 3:0 32 0] [13] 0 0
SFs 15.773101505 _1_ 21 [1 -> 3] 1(0) to 0 
s 15.773101505 _1_ RTR  --- 21 cbr 532 [0 0 0 0] ------- [1:0 3:0 32 0] [13] 0 0
r 15.778611188 _0_ RTR  --- 21 cbr 532 [13a 0 1 800] ------- [1:0 3:0 32 0] [13] 1 0
SFf 15.778611188 _0_ 21 [1 -> 3] 1 to 2
f 15.778611188 _0_ RTR  --- 21 cbr 532 [13a 0 1 800] ------- [1:0 3:0 31 2] [13] 1 0
r 15.784564485 _2_ RTR  --- 21 cbr 532 [13a 2 0 800] ------- [1:0 3:0 31 2] [13] 2 0
SFf 15.784564485 _2_ 21 [1 -> 3] 1 to 3
f 15.784564485 _2_ RTR  --- 21 cbr 532 [13a 2 0 800] ------- [1:0 3:0 30 3] [13] 2 0
r 15.790638605 _3_ RTR  --- 21 cbr 532 [13a 3 2 800] ------- [1:0 3:0 30 3] [13] 3 0
r 15.790638605 _3_ AGT  --- 21 cbr 512 [13a 3 2 800] ------- [1:0 3:0 30 3] [13] 3 0
s 15.800841973 _1_ AGT  --- 22 cbr 512 [0 0 0 0] ------- [1:0 3:0 32 0] [14] 0 0
r 15.800841973 _1_ RTR  --- 22 cbr 512 [0 0 0 0] ------- [1:0 3:0 32 0] [14] 0 0
SFs 15.800841973 _1_ 22 [1 -> 3] 1(0) to 0 
s 15.800841973 _1_ RTR  --- 22 cbr 532 [0 0 0 0] ------- [1:0 3:0 32 0] [14] 0 0
r 15.806371656 _0_ RTR  --- 22 cbr 532 [13a 0 1 800] ------- [1:0 3:0 32 0] [14] 1 0
SFf 15.806371656 _0_ 22 [1 -> 3] 1 to 2
f 15.806371656 _0_ RTR  --- 22 cbr 532 [13a 0 1 800] ------- [1:0 3:0 31 2] [14] 1 0
r 15.812644953 _2_ RTR  --- 22 cbr 532 [13a 2 0 800] ------- [1:0 3:0 31 2] [14] 2 0
SFf 15.812644953 _2_ 22 [1 -> 3] 1 to 3
f 15.812644953 _2_ RTR  --- 22 cbr 532 [13a 2 0 800] ------- [1:0 3:0 30 3] [14] 2 0
r 15.818899073 _3_ RTR  --- 22 cbr 532 [13a 3 2 800] ------- [1:0 3:0 30 3] [14] 3 0
r 15.818899073 _3_ AGT  --- 22 cbr 512 [13a 3 2 800] ------- [1:0 3:0 30 3] [14] 3 0
s 15.836835063 _1_ AGT  --- 23 cbr 512 [0 0 0 0] ------- [1:0 3:0 32 0] [15] 0 0
r 15.836835063 _1_ RTR  --- 23 cbr 512 [0 0 0 0] ------- [1:0 3:0 32 0] [15] 0 0
SFs 15.836835063 _1_ 23 [1 -> 3] 1(0) to 0 
s 15.836835063 _1_ RTR  --- 23 cbr 532 [0 0 0 0] ------- [1:0 3:0 32 0] [15] 0 0
r 15.842644746 _0_ RTR  --- 23 cbr 532 [13a 0 1 800] ------- [1:0 3:0 32 0] [15] 1 0
SFf 15.842644746 _0_ 23 [1 -> 3] 1 to 2
f 15.842644746 _0_ RTR  --- 23 cbr 532 [13a 0 1 800] ------- [1:0 3:0 31 2] [15] 1 0
r 15.848398043 _2_ RTR  --- 23 cbr 532 [13a 2 0 800] ------- [1:0 3:0 31 2] [15] 2 0
SFf 15.848398043 _2_ 23 [1 -> 3] 1 to 3
f 15.848398043 _2_ RTR  --- 23 cbr 532 [13a 2 0 800] ------- [1:0 3:0 30 3] [15] 2 0
r 15.854712164 _3_ RTR  --- 23 cbr 532 [13a 3 2 800] ------- [1:0 3:0 30 3] [15] 3 0
r 15.854712164 _3_ AGT  --- 23 cbr 512 [13a 3 2 800] ------- [1:0 3:0 30 3] [15] 3 0
s 15.887603967 _1_ AGT  --- 24 cbr 512 [0 0 0 0] ------- [1:0 3:0 32 0] [16] 0 0
r 15.887603967 _1_ RTR  --- 24 cbr 512 [0 0 0 0] ------- [1:0 3:0 32 0] [16] 0 0
SFs 15.887603967 _1_ 24 [1 -> 3] 1(0) to 0 
s 15.887603967 _1_ RTR  --- 24 cbr 532 [0 0 0 0] ------- [1:0 3:0 32 0] [16] 0 0
r 15.893613650 _0_ RTR  --- 24 cbr 532 [13a 0 1 800] ------- [1:0 3:0 32 0] [16] 1 0
SFf 15.893613650 _0_ 24 [1 -> 3] 1 to 2
f 15.893613650 _0_ RTR  --- 24 cbr 532 [13a 0 1 800] ------- [1:0 3:0 31 2] [16] 1 0
r 15.899686947 _2_ RTR  --- 24 cbr 532 [13a 2 0 800] ------- [1:0 3:0 31 2] [16] 2 0
SFf 15.899686947 _2_ 24 [1 -> 3] 1 to 3
f 15.899686947 _2_ RTR  --- 24 cbr 532 [13a 2 0 800] ------- [1:0 3:0 30 3] [16] 2 0
r 15.905621068 _3_ RTR  --- 24 cbr 532 [13a 3 2 800] ------- [1:0 3:0 30 3] [16] 3 0
r 15.905621068 _3_ AGT  --- 24 cbr 512 [13a 3 2 800] ------- [1:0 3:0 30 3] [16] 3 0
s 15.919500227 _1_ AGT  --- 25 cbr 512 [0 0 0 0] ------- [1:0 3:0 32 0] [17] 0 0
r 15.919500227 _1_ RTR  --- 25 cbr 512 [0 0 0 0] ------- [1:0 3:0 32 0] [17] 0 0
SFs 15.919500227 _1_ 25 [1 -> 3] 1(0) to 0 
s 15.919500227 _1_ RTR  --- 25 cbr 532 [0 0 0 0] ------- [1:0 3:0 32 0] [17] 0 0
r 15.925129910 _0_ RTR  --- 25 cbr 532 [13a 0 1 800] ------- [1:0 3:0 32 0] [17] 1 0
SFf 15.925129910 _0_ 25 [1 -> 3] 1 to 2
f 15.925129910 _0_ RTR  --- 25 cbr 532 [13a 0 1 800] ------- [1:0 3:0 31 2] [17] 1 0
r 15.931143207 _2_ RTR  --- 25 cbr 532 [13a 2 0 800] ------- [1:0 3:0 31 2] [17] 2 0
SFf 15.931143207 _2_ 25 [1 -> 3] 1 to 3
f 15.931143207 _2_ RTR  --- 25 cbr 532 [13a 2 0 800] ------- [1:0 3:0 30 3] [17] 2 0
r 15.936937327 _3_ RTR  --- 25 cbr 532 [13a 3 2 800] ------- [1:0 3:0 30 3] [17] 3 0
r 15.936937327 _3_ AGT  --- 25 cbr 512 [13a 3 2 800] ------- [1:0 3:0 30 3] [17] 3 0
s 15.966904601 _1_ AGT  --- 26 cbr 512 [0 0 0 0] ------- [1:0 3:0 32 0] [18] 0 0
r 15.966904601 _1_ RTR  --- 26 cbr 512 [0 0 0 0] ------- [1:0 3:0 32 0] [18] 0 0
SFs 15.966904601 _1_ 26 [1 -> 3] 1(0) to 0 
s 15.966904601 _1_ RTR  --- 26 cbr 532 [0 0 0 0] ------- [1:0 3:0 32 0] [18] 0 0
r 15.972774284 _0_ RTR  --- 26 cbr 532 [13a 0 1 800] ------- [1:0 3:0 32 0] [18] 1 0
SFf 15.972774284 _0_ 26 [1 -> 3] 1 to 2
f 15.972774284 _0_ RTR  --- 26 cbr 532 [13a 0 1 800] ------- [1:0 3:0 31 2] [18] 1 0
r 15.978707581 _2_ RTR  --- 26 cbr 532 [13a 2 0 800] ------- [1:0 3:0 31 2] [18] 2 0
SFf 15.978707581 _2_ 26 [1 -> 3] 1 to 3
f 15.978707581 _2_ RTR  --- 26 cbr 532 [13a 2 0 800] ------- [1:0 3:0 30 3] [18] 2 0
r 15.984981701 _3_ RTR  --- 26 cbr 532 [13a 3 2 800] ------- [1:0 3:0 30 3] [18] 3 0
r 15.984981701 _3_ AGT  --- 26 cbr 512 [13a 3 2 800] ------- [1:0 3:0 30 3] [18] 3 0
s 16.031404192 _1_ AGT  --- 27 cbr 512 [0 0 0 0] ------- [1:0 3:0 32 0] [19] 0 0
r 16.031404192 _1_ RTR  --- 27 cbr 512 [0 0 0 0] ------- [1:0 3:0 32 0] [19] 0 0
SFs 16.031404192 _1_ 27 [1 -> 3] 1(0) to 0 
s 16.031404192 _1_ RTR  --- 27 cbr 532 [0 0 0 0] ------- [1:0 3:0 32 0] [19] 0 0
r 16.037433875 _0_ RTR  --- 27 cbr 532 [13a 0 1 800] ------- [1:0 3:0 32 0] [19] 1 0
SFf 16.037433875 _0_ 27 [1 -> 3] 1 to 2
f 16.037433875 _0_ RTR  --- 27 cbr 532 [13a 0 1 800] ------- [1:0 3:0 31 2] [19] 1 0
r 16.043687172 _2_ RTR  --- 27 cbr 532 [13a 2 0 800] ------- [1:0 3:0 31 2] [19] 2 0
SFf 16.043687172 _2_ 27 [1 -> 3] 1 to 3
f 16.043687172 _2_ RTR  --- 27 cbr 532 [13a 2 0 800] ------- [1:0 3:0 30 3] [19] 2 0
r 16.049981292 _3_ RTR  --- 27 cbr 532 [13a 3 2 800] ------- [1:0 3:0 30 3] [19] 3 0
r 16.049981292 _3_ AGT  --- 27 cbr 512 [13a 3 2 800] ------- [1:0 3:0 30 3] [19] 3 0
s 16.100012694 _1_ AGT  --- 28 cbr 512 [0 0 0 0] ------- [1:0 3:0 32 0] [20] 0 0
r 16.100012694 _1_ RTR  --- 28 cbr 512 [0 0 0 0] ------- [1:0 3:0 32 0] [20] 0 0
SFs 16.100012694 _1_ 28 [1 -> 3] 1(0) to 0 
s 16.100012694 _1_ RTR  --- 28 cbr 532 [0 0 0 0] ------- [1:0 3:0 32 0] [20] 0 0
r 16.105662377 _0_ RTR  --- 28 cbr 532 [13a 0 1 800] ------- [1:0 3:0 32 0] [20] 1 0
SFf 16.105662377 _0_ 28 [1 -> 3] 1 to 2
f 16.105662377 _0_ RTR  --- 28 cbr 532 [13a 0 1 800] ------- [1:0 3:0 31 2] [20] 1 0
r 16.111975674 _2_ RTR  --- 28 cbr 532 [13a 2 0 800] ------- [1:0 3:0 31 2] [20] 2 0
SFf 16.111975674 _2_ 28 [1 -> 3] 1 to 3
f 16.111975674 _2_ RTR  --- 28 cbr 532 [13a 2 0 800] ------- [1:0 3:0 30 3] [20] 2 0
r 16.117809794 _3_ RTR  --- 28 cbr 532 [13a 3 2 800] ------- [1:0 3:0 30 3] [20] 3 0
r 16.117809794 _3_ AGT  --- 28 cbr 512 [13a 3 2 800] ------- [1:0 3:0 30 3] [20] 3 0
s 16.167439356 _1_ AGT  --- 29 cbr 512 [0 0 0 0] ------- [1:0 3:0 32 0] [21] 0 0
r 16.167439356 _1_ RTR  --- 29 cbr 512 [0 0 0 0] ------- [1:0 3:0 32 0] [21] 0 0
SFs 16.167439356 _1_ 29 [1 -> 3] 1(0) to 0 
s 16.167439356 _1_ RTR  --- 29 cbr 532 [0 0 0 0] ------- [1:0 3:0 32 0] [21] 0 0
r 16.173009039 _0_ RTR  --- 29 cbr 532 [13a 0 1 800] ------- [1:0 3:0 32 0] [21] 1 0
SFf 16.173009039 _0_ 29 [1 -> 3] 1 to 2
f 16.173009039 _0_ RTR  --- 29 cbr 532 [13a 0 1 800] ------- [1:0 3:0 31 2] [21] 1 0
r 16.178782336 _2_ RTR  --- 29 cbr 532 [13a 2 0 800] ------- [1:0 3:0 31 2] [21] 2 0
SFf 16.178782336 _2_ 29 [1 -> 3] 1 to 3
f 16.178782336 _2_ RTR  --- 29 cbr 532 [13a 2 0 800] ------- [1:0 3:0 30 3] [21] 2 0
r 16.184496457 _3_ RTR  --- 29 cbr 532 [13a 3 2 800] ------- [1:0 3:0 30 3] [21] 3 0
r 16.184496457 _3_ AGT  --- 29 cbr 512 [13a 3 2 800] ------- [1:0 3:0 30 3] [21] 3 0
s 16.209807411 _1_ AGT  --- 30 cbr 512 [0 0 0 0] ------- [1:0 3:0 32 0] [22] 0 0
r 16.209807411 _1_ RTR  --- 30 cbr 512 [0 0 0 0] ------- [1:0 3:0 32 0] [22] 0 0
SFs 16.209807411 _1_ 30 [1 -> 3] 1(0) to 0 
s 16.209807411 _1_ RTR  --- 30 cbr 532 [0 0 0 0] ------- [1:0 3:0 32 0] [22] 0 0
r 16.215257094 _0_ RTR  --- 30 cbr 532 [13a 0 1 800] ------- [1:0 3:0 32 0] [22] 1 0
SFf 16.215257094 _0_ 30 [1 -> 3] 1 to 2
f 16.215257094 _0_ RTR  --- 30 cbr 532 [13a 0 1 800] ------- [1:0 3:0 31 2] [22] 1 0
r 16.221250391 _2_ RTR  --- 30 cbr 532 [13a 2 0 800] ------- [1:0 3:0 31 2] [22] 2 0
SFf 16.221250391 _2_ 30 [1 -> 3] 1 to 3
f 16.221250391 _2_ RTR  --- 30 cbr 532 [13a 2 0 800] ------- [1:0 3:0 30 3] [22] 2 0
r 16.227204512 _3_ RTR  --- 30 cbr 532 [13a 3 2 800] ------- [1:0 3:0 30 3] [22] 3 0
r 16.227204512 _3_ AGT  --- 30 cbr 512 [13a 3 2 800] ------- [1:0 3:0 30 3] [22] 3 0
s 16.249839472 _1_ AGT  --- 31 cbr 512 [0 0 0 0] ------- [1:0 3:0 32 0] [23] 0 0
r 16.249839472 _1_ RTR  --- 31 cbr 512 [0 0 0 0] ------- [1:0 3:0 32 0] [23] 0 0
SFs 16.249839472 _1_ 31 [1 -> 3] 1(0) to 0 
s 16.249839472 _1_ RTR  --- 31 cbr 532 [0 0 0 0] ------- [1:0 3:0 32 0] [23] 0 0
r 16.255469155 _0_ RTR  --- 31 cbr 532 [13a 0 1 800] ------- [1:0 3:0 32 0] [23] 1 0
SFf 16.255469155 _0_ 31 [1 -> 3] 1 to 2
f 16.255469155 _0_ RTR  --- 31 cbr 532 [13a 0 1 800] ------- [1:0 3:0 31 2] [23] 1 0
r 16.261302452 _2_ RTR  --- 31 cbr 532 [13a 2 0 800] ------- [1:0 3:0 31 2] [23] 2 0
SFf 16.261302452 _2_ 31 [1 -> 3] 1 to 3
f 16.261302452 _2_ RTR  --- 31 cbr 532 [13a 2 0 800] ------- [1:0 3:0 30 3] [23] 2 0
r 16.267096573 _3_ RTR  --- 31 cbr 532 [13a 3 2 800] ------- [1:0 3:0 30 3] [23] 3 0
r 16.267096573 _3_ AGT  --- 31 cbr 512 [13a 3 2 800] ------- [1:0 3:0 30 3] [23] 3 0
s 16.284469189 _1_ AGT  --- 32 cbr 512 [0 0 0 0] ------- [1:0 3:0 32 0] [24] 0 0
r 16.284469189 _1_ RTR  --- 32 cbr 512 [0 0 0 0] ------- [1:0 3:0 32 0] [24] 0 0
SFs 16.284469189 _1_ 32 [1 -> 3] 1(0) to 0 
s 16.284469189 _1_ RTR  --- 32 cbr 532 [0 0 0 0] ------- [1:0 3:0 32 0] [24] 0 0
r 16.290258872 _0_ RTR  --- 32 cbr 532 [13a 0 1 800] ------- [1:0 3:0 32 0] [24] 1 0
SFf 16.290258872 _0_ 32 [1 -> 3] 1 to 2
f 16.290258872 _0_ RTR  --- 32 cbr 532 [13a 0 1 800] ------- [1:0 3:0 31 2] [24] 1 0
r 16.296092169 _2_ RTR  --- 32 cbr 532 [13a 2 0 800] ------- [1:0 3:0 31 2] [24] 2 0
SFf 16.296092169 _2_ 32 [1 -> 3] 1 to 3
f 16.296092169 _2_ RTR  --- 32 cbr 532 [13a 2 0 800] ------- [1:0 3:0 30 3] [24] 2 0
r 16.301846289 _3_ RTR  --- 32 cbr 532 [13a 3 2 800] ------- [1:0 3:0 30 3] [24] 3 0
r 16.301846289 _3_ AGT  --- 32 cbr 512 [13a 3 2 800] ------- [1:0 3:0 30 3] [24] 3 0
s 16.323930971 _1_ AGT  --- 33 cbr 512 [0 0 0 0] ------- [1:0 3:0 32 0] [25] 0 0
r 16.323930971 _1_ RTR  --- 33 cbr 512 [0 0 0 0] ------- [1:0 3:0 32 0] [25] 0 0
SFs 16.323930971 _1_ 33 [1 -> 3] 1(0) to 0 
s 16.323930971 _1_ RTR  --- 33 cbr 532 [0 0 0 0] ------- [1:0 3:0 32 0] [25] 0 0
r 16.329540654 _0_ RTR  --- 33 cbr 532 [13a 0 1 800] ------- [1:0 3:0 32 0] [25] 1 0
SFf 16.329540654 _0_ 33 [1 -> 3] 1 to 2
f 16.329540654 _0_ RTR  --- 33 cbr 532 [13a 0 1 800] ------- [1:0 3:0 31 2] [25] 1 0
r 16.335513951 _2_ RTR  --- 33 cbr 532 [13a 2 0 800] ------- [1:0 3:0 31 2] [25] 2 0
SFf 16.335513951 _2_ 33 [1 -> 3] 1 to 3
f 16.335513951 _2_ RTR  --- 33 cbr 532 [13a 2 0 800] ------- [1:0 3:0 30 3] [25] 2 0
r 16.341548072 _3_ RTR  --- 33 cbr 532 [13a 3 2 800] ------- [1:0 3:0 30 3] [25] 3 0
r 16.341548072 _3_ AGT  --- 33 cbr 512 [13a 3 2 800] ------- [1:0 3:0 30 3] [25] 3 0
s 16.389746597 _1_ AGT  --- 34 cbr 512 [0 0 0 0] ------- [1:0 3:0 32 0] [26] 0 0
r 16.389746597 _1_ RTR  --- 34 cbr 512 [0 0 0 0] ------- [1:0 3:0 32 0] [26] 0 0
SFs 16.389746597 _1_ 34 [1 -> 3] 1(0) to 0 
s 16.389746597 _1_ RTR  --- 34 cbr 532 [0 0 0 0] ------- [1:0 3:0 32 0] [26] 0 0
r 16.395796280 _0_ RTR  --- 34 cbr 532 [13a 0 1 800] ------- [1:0 3:0 32 0] [26] 1 0
SFf 16.395796280 _0_ 34 [1 -> 3] 1 to 2
f 16.395796280 _0_ RTR  --- 34 cbr 532 [13a 0 1 800] ------- [1:0 3:0 31 2] [26] 1 0
r 16.401589577 _2_ RTR  --- 34 cbr 532 [13a 2 0 800] ------- [1:0 3:0 31 2] [26] 2 0
SFf 16.401589577 _2_ 34 [1 -> 3] 1 to 3
f 16.401589577 _2_ RTR  --- 34 cbr 532 [13a 2 0 800] ------- [1:0 3:0 30 3] [26] 2 0
r 16.407303697 _3_ RTR  --- 34 cbr 532 [13a 3 2 800] ------- [1:0 3:0 30 3] [26] 3 0
r 16.407303697 _3_ AGT  --- 34 cbr 512 [13a 3 2 800] ------- [1:0 3:0 30 3] [26] 3 0