n -t * -s 0  -x 100 -y 100 -Z 0 -z 30  -v circle -c black
n -t * -s 1  -x 300 -y 100 -Z 0 -z 30  -v circle -c black
n -t * -s 2  -x 500 -y 100 -Z 0 -z 30  -v circle -c black
n -t * -s 3  -x 100 -y 200 -Z 0 -z 30  -v circle -c black
n -t * -s 4  -x 300 -y 200 -Z 0 -z 30  -v circle -c black
n -t * -s 5  -x 500 -y 200 -Z 0 -z 30  -v circle -c black
n -t * -s 6  -x 100 -y 300 -Z 0 -z 30  -v circle -c black
n -t * -s 7  -x 300 -y 300 -Z 0 -z 30  -v circle -c black
n -t * -s 8  -x 500 -y 300 -Z 0 -z 30  -v circle -c black
n -t * -s 9  -x 100 -y 400 -Z 0 -z 30  -v circle -c black
n -t * -s 10  -x 300 -y 400 -Z 0 -z 30  -v circle -c black
n -t * -s 11  -x 500 -y 400 -Z 0 -z 30  -v circle -c black
n -t * -s 12  -x 100 -y 500 -Z 0 -z 30  -v circle -c black
n -t * -s 13  -x 300 -y 500 -Z 0 -z 30  -v circle -c black
n -t * -s 14  -x 500 -y 500 -Z 0 -z 30  -v circle -c black
V -t * -v 1.0a5 -a 0
W -t * -x 500 -y 500
A -t * -n 1 -p 0 -o 0xffffffff -c 31 -a 1
A -t * -h 1 -m 2147483647 -s 0
+ -t 15.000000000 -s 0 -d -1 -p cbr -e 512 -c 2 -a 0 -i 0 -k AGT 
- -t 15.000000000 -s 0 -d -1 -p cbr -e 512 -c 2 -a 0 -i 0 -k AGT
h -t 15.000000000 -s 0 -d -1 -p cbr -e 512 -c 2 -a 0 -i 0 -k AGT
+ -t 15.004896941 -s 0 -d -1 -p DSR -e 32 -c 2 -a 0 -i 1 -k RTR 
- -t 15.004896941 -s 0 -d -1 -p DSR -e 32 -c 2 -a 0 -i 1 -k RTR
h -t 15.004896941 -s 0 -d -1 -p DSR -e 32 -c 2 -a 0 -i 1 -k RTR
+ -t 15.028381329 -s 0 -d -1 -p cbr -e 512 -c 2 -a 0 -i 3 -k AGT 
- -t 15.028381329 -s 0 -d -1 -p cbr -e 512 -c 2 -a 0 -i 3 -k AGT
h -t 15.028381329 -s 0 -d -1 -p cbr -e 512 -c 2 -a 0 -i 3 -k AGT
+ -t 15.083122002 -s 0 -d -1 -p DSR -e 32 -c 2 -a 0 -i 5 -k RTR 
- -t 15.083122002 -s 0 -d -1 -p DSR -e 32 -c 2 -a 0 -i 5 -k RTR
h -t 15.083122002 -s 0 -d -1 -p DSR -e 32 -c 2 -a 0 -i 5 -k RTR
+ -t 15.085399643 -s 4 -d -1 -p DSR -e 48 -c 2 -a 0 -i 5 -k RTR 
- -t 15.085399643 -s 4 -d -1 -p DSR -e 48 -c 2 -a 0 -i 5 -k RTR
h -t 15.085399643 -s 4 -d -1 -p DSR -e 48 -c 2 -a 0 -i 5 -k RTR
+ -t 15.087203431 -s 3 -d -1 -p DSR -e 48 -c 2 -a 0 -i 5 -k RTR 
- -t 15.087203431 -s 3 -d -1 -p DSR -e 48 -c 2 -a 0 -i 5 -k RTR
h -t 15.087203431 -s 3 -d -1 -p DSR -e 48 -c 2 -a 0 -i 5 -k RTR
+ -t 15.087527875 -s 6 -d -1 -p DSR -e 48 -c 2 -a 0 -i 5 -k RTR 
- -t 15.087527875 -s 6 -d -1 -p DSR -e 48 -c 2 -a 0 -i 5 -k RTR
h -t 15.087527875 -s 6 -d -1 -p DSR -e 48 -c 2 -a 0 -i 5 -k RTR
+ -t 15.087676585 -s 8 -d -1 -p DSR -e 68 -c 2 -a 0 -i 5 -k RTR 
- -t 15.087676585 -s 8 -d -1 -p DSR -e 68 -c 2 -a 0 -i 5 -k RTR
h -t 15.087676585 -s 8 -d -1 -p DSR -e 68 -c 2 -a 0 -i 5 -k RTR
+ -t 15.089986698 -s 12 -d -1 -p DSR -e 68 -c 2 -a 0 -i 5 -k RTR 
- -t 15.089986698 -s 12 -d -1 -p DSR -e 68 -c 2 -a 0 -i 5 -k RTR
h -t 15.089986698 -s 12 -d -1 -p DSR -e 68 -c 2 -a 0 -i 5 -k RTR
+ -t 15.090535126 -s 2 -d -1 -p DSR -e 68 -c 2 -a 0 -i 5 -k RTR 
- -t 15.090535126 -s 2 -d -1 -p DSR -e 68 -c 2 -a 0 -i 5 -k RTR
h -t 15.090535126 -s 2 -d -1 -p DSR -e 68 -c 2 -a 0 -i 5 -k RTR
+ -t 15.091450848 -s 10 -d -1 -p DSR -e 68 -c 2 -a 0 -i 5 -k RTR 
- -t 15.091450848 -s 10 -d -1 -p DSR -e 68 -c 2 -a 0 -i 5 -k RTR
h -t 15.091450848 -s 10 -d -1 -p DSR -e 68 -c 2 -a 0 -i 5 -k RTR
+ -t 15.091929494 -s 0 -d -1 -p cbr -e 512 -c 2 -a 0 -i 7 -k AGT 
- -t 15.091929494 -s 0 -d -1 -p cbr -e 512 -c 2 -a 0 -i 7 -k AGT
h -t 15.091929494 -s 0 -d -1 -p cbr -e 512 -c 2 -a 0 -i 7 -k AGT
+ -t 15.092457915 -s 1 -d -1 -p DSR -e 48 -c 2 -a 0 -i 5 -k RTR 
- -t 15.092457915 -s 1 -d -1 -p DSR -e 48 -c 2 -a 0 -i 5 -k RTR
h -t 15.092457915 -s 1 -d -1 -p DSR -e 48 -c 2 -a 0 -i 5 -k RTR
+ -t 15.093840303 -s 9 -d -1 -p DSR -e 68 -c 2 -a 0 -i 5 -k RTR 
- -t 15.093840303 -s 9 -d -1 -p DSR -e 68 -c 2 -a 0 -i 5 -k RTR
h -t 15.093840303 -s 9 -d -1 -p DSR -e 68 -c 2 -a 0 -i 5 -k RTR
+ -t 15.095838408 -s 5 -d -1 -p DSR -e 68 -c 2 -a 0 -i 5 -k RTR 
- -t 15.095838408 -s 5 -d -1 -p DSR -e 68 -c 2 -a 0 -i 5 -k RTR
h -t 15.095838408 -s 5 -d -1 -p DSR -e 68 -c 2 -a 0 -i 5 -k RTR
+ -t 15.096032328 -s 7 -d -1 -p DSR -e 68 -c 2 -a 0 -i 5 -k RTR 
- -t 15.096032328 -s 7 -d -1 -p DSR -e 68 -c 2 -a 0 -i 5 -k RTR
h -t 15.096032328 -s 7 -d -1 -p DSR -e 68 -c 2 -a 0 -i 5 -k RTR
+ -t 15.096779535 -s 13 -d 9 -p DSR -e 60 -c 2 -a 0 -i 11 -k RTR 
- -t 15.096779535 -s 13 -d 9 -p DSR -e 60 -c 2 -a 0 -i 11 -k RTR
h -t 15.096779535 -s 13 -d 9 -p DSR -e 60 -c 2 -a 0 -i 11 -k RTR
+ -t 15.097836081 -s 13 -d 10 -p DSR -e 60 -c 2 -a 0 -i 10 -k RTR 
- -t 15.097836081 -s 13 -d 10 -p DSR -e 60 -c 2 -a 0 -i 10 -k RTR
h -t 15.097836081 -s 13 -d 10 -p DSR -e 60 -c 2 -a 0 -i 10 -k RTR
+ -t 15.098448639 -s 11 -d -1 -p DSR -e 92 -c 2 -a 0 -i 5 -k RTR 
- -t 15.098448639 -s 11 -d -1 -p DSR -e 92 -c 2 -a 0 -i 5 -k RTR
h -t 15.098448639 -s 11 -d -1 -p DSR -e 92 -c 2 -a 0 -i 5 -k RTR
+ -t 15.099451075 -s 9 -d 3 -p DSR -e 60 -c 2 -a 0 -i 11 -k RTR 
- -t 15.099451075 -s 9 -d 3 -p DSR -e 60 -c 2 -a 0 -i 11 -k RTR
h -t 15.099451075 -s 9 -d 3 -p DSR -e 60 -c 2 -a 0 -i 11 -k RTR
+ -t 15.099922012 -s 14 -d -1 -p DSR -e 92 -c 2 -a 0 -i 5 -k RTR 
- -t 15.099922012 -s 14 -d -1 -p DSR -e 92 -c 2 -a 0 -i 5 -k RTR
h -t 15.099922012 -s 14 -d -1 -p DSR -e 92 -c 2 -a 0 -i 5 -k RTR
+ -t 15.100236576 -s 13 -d 12 -p DSR -e 60 -c 2 -a 0 -i 9 -k RTR 
- -t 15.100236576 -s 13 -d 12 -p DSR -e 60 -c 2 -a 0 -i 9 -k RTR
h -t 15.100236576 -s 13 -d 12 -p DSR -e 60 -c 2 -a 0 -i 9 -k RTR
+ -t 15.101688820 -s 10 -d 4 -p DSR -e 60 -c 2 -a 0 -i 10 -k RTR 
- -t 15.101688820 -s 10 -d 4 -p DSR -e 60 -c 2 -a 0 -i 10 -k RTR
h -t 15.101688820 -s 10 -d 4 -p DSR -e 60 -c 2 -a 0 -i 10 -k RTR
+ -t 15.106431059 -s 13 -d 7 -p DSR -e 60 -c 2 -a 0 -i 12 -k RTR 
- -t 15.106431059 -s 13 -d 7 -p DSR -e 60 -c 2 -a 0 -i 12 -k RTR
h -t 15.106431059 -s 13 -d 7 -p DSR -e 60 -c 2 -a 0 -i 12 -k RTR
+ -t 15.106665644 -s 3 -d 0 -p DSR -e 60 -c 2 -a 0 -i 11 -k RTR 
- -t 15.106665644 -s 3 -d 0 -p DSR -e 60 -c 2 -a 0 -i 11 -k RTR
h -t 15.106665644 -s 3 -d 0 -p DSR -e 60 -c 2 -a 0 -i 11 -k RTR
+ -t 15.109002644 -s 0 -d 3 -p cbr -e 556 -c 2 -a 0 -i 0 -k RTR 
- -t 15.109002644 -s 0 -d 3 -p cbr -e 556 -c 2 -a 0 -i 0 -k RTR
h -t 15.109002644 -s 0 -d 3 -p cbr -e 556 -c 2 -a 0 -i 0 -k RTR
+ -t 15.111571321 -s 13 -d 11 -p DSR -e 68 -c 2 -a 0 -i 13 -k RTR 
- -t 15.111571321 -s 13 -d 11 -p DSR -e 68 -c 2 -a 0 -i 13 -k RTR
h -t 15.111571321 -s 13 -d 11 -p DSR -e 68 -c 2 -a 0 -i 13 -k RTR
+ -t 15.112155297 -s 13 -d 14 -p DSR -e 68 -c 2 -a 0 -i 14 -k RTR 
- -t 15.112155297 -s 13 -d 14 -p DSR -e 68 -c 2 -a 0 -i 14 -k RTR
h -t 15.112155297 -s 13 -d 14 -p DSR -e 68 -c 2 -a 0 -i 14 -k RTR
+ -t 15.112514644 -s 12 -d 6 -p DSR -e 60 -c 2 -a 0 -i 9 -k RTR 
- -t 15.112514644 -s 12 -d 6 -p DSR -e 60 -c 2 -a 0 -i 9 -k RTR
h -t 15.112514644 -s 12 -d 6 -p DSR -e 60 -c 2 -a 0 -i 9 -k RTR
+ -t 15.114753389 -s 4 -d 0 -p DSR -e 60 -c 2 -a 0 -i 10 -k RTR 
- -t 15.114753389 -s 4 -d 0 -p DSR -e 60 -c 2 -a 0 -i 10 -k RTR
h -t 15.114753389 -s 4 -d 0 -p DSR -e 60 -c 2 -a 0 -i 10 -k RTR
+ -t 15.123196625 -s 3 -d 9 -p cbr -e 556 -c 2 -a 0 -i 0 -k RTR 
- -t 15.123196625 -s 3 -d 9 -p cbr -e 556 -c 2 -a 0 -i 0 -k RTR
h -t 15.123196625 -s 3 -d 9 -p cbr -e 556 -c 2 -a 0 -i 0 -k RTR
+ -t 15.125583827 -s 14 -d 8 -p DSR -e 68 -c 2 -a 0 -i 14 -k RTR 
- -t 15.125583827 -s 14 -d 8 -p DSR -e 68 -c 2 -a 0 -i 14 -k RTR
h -t 15.125583827 -s 14 -d 8 -p DSR -e 68 -c 2 -a 0 -i 14 -k RTR
+ -t 15.127907161 -s 6 -d 0 -p DSR -e 60 -c 2 -a 0 -i 9 -k RTR 
- -t 15.127907161 -s 6 -d 0 -p DSR -e 60 -c 2 -a 0 -i 9 -k RTR
h -t 15.127907161 -s 6 -d 0 -p DSR -e 60 -c 2 -a 0 -i 9 -k RTR
+ -t 15.133963494 -s 9 -d 13 -p cbr -e 556 -c 2 -a 0 -i 0 -k RTR 
- -t 15.133963494 -s 9 -d 13 -p cbr -e 556 -c 2 -a 0 -i 0 -k RTR
h -t 15.133963494 -s 9 -d 13 -p cbr -e 556 -c 2 -a 0 -i 0 -k RTR
+ -t 15.136036265 -s 11 -d 8 -p DSR -e 68 -c 2 -a 0 -i 13 -k RTR 
- -t 15.136036265 -s 11 -d 8 -p DSR -e 68 -c 2 -a 0 -i 13 -k RTR
h -t 15.136036265 -s 11 -d 8 -p DSR -e 68 -c 2 -a 0 -i 13 -k RTR
+ -t 15.138137265 -s 8 -d 4 -p DSR -e 68 -c 2 -a 0 -i 13 -k RTR 
- -t 15.138137265 -s 8 -d 4 -p DSR -e 68 -c 2 -a 0 -i 13 -k RTR
h -t 15.138137265 -s 8 -d 4 -p DSR -e 68 -c 2 -a 0 -i 13 -k RTR
+ -t 15.139002644 -s 0 -d 3 -p cbr -e 556 -c 2 -a 0 -i 3 -k RTR 
- -t 15.139002644 -s 0 -d 3 -p cbr -e 556 -c 2 -a 0 -i 3 -k RTR
h -t 15.139002644 -s 0 -d 3 -p cbr -e 556 -c 2 -a 0 -i 3 -k RTR
+ -t 15.140219932 -s 8 -d 4 -p DSR -e 68 -c 2 -a 0 -i 14 -k RTR 
- -t 15.140219932 -s 8 -d 4 -p DSR -e 68 -c 2 -a 0 -i 14 -k RTR
h -t 15.140219932 -s 8 -d 4 -p DSR -e 68 -c 2 -a 0 -i 14 -k RTR
r -t 15.146531542 -s 13 -d 13 -p cbr -e 512 -c 2 -a 0 -i 0 -k AGT
+ -t 15.148929542 -s 7 -d 4 -p DSR -e 60 -c 2 -a 0 -i 12 -k RTR 
- -t 15.148929542 -s 7 -d 4 -p DSR -e 60 -c 2 -a 0 -i 12 -k RTR
h -t 15.148929542 -s 7 -d 4 -p DSR -e 60 -c 2 -a 0 -i 12 -k RTR
+ -t 15.151102055 -s 4 -d 0 -p DSR -e 68 -c 2 -a 0 -i 13 -k RTR 
- -t 15.151102055 -s 4 -d 0 -p DSR -e 68 -c 2 -a 0 -i 13 -k RTR
h -t 15.151102055 -s 4 -d 0 -p DSR -e 68 -c 2 -a 0 -i 13 -k RTR
+ -t 15.157907010 -s 0 -d -1 -p cbr -e 512 -c 2 -a 0 -i 15 -k AGT 
- -t 15.157907010 -s 0 -d -1 -p cbr -e 512 -c 2 -a 0 -i 15 -k AGT
h -t 15.157907010 -s 0 -d -1 -p cbr -e 512 -c 2 -a 0 -i 15 -k AGT
+ -t 15.157907010 -s 0 -d 3 -p cbr -e 532 -c 2 -a 0 -i 15 -k RTR 
- -t 15.157907010 -s 0 -d 3 -p cbr -e 532 -c 2 -a 0 -i 15 -k RTR
h -t 15.157907010 -s 0 -d 3 -p cbr -e 532 -c 2 -a 0 -i 15 -k RTR
+ -t 15.161438624 -s 3 -d 9 -p cbr -e 556 -c 2 -a 0 -i 3 -k RTR 
- -t 15.161438624 -s 3 -d 9 -p cbr -e 556 -c 2 -a 0 -i 3 -k RTR
h -t 15.161438624 -s 3 -d 9 -p cbr -e 556 -c 2 -a 0 -i 3 -k RTR
+ -t 15.167484624 -s 9 -d 13 -p cbr -e 556 -c 2 -a 0 -i 3 -k RTR 
- -t 15.167484624 -s 9 -d 13 -p cbr -e 556 -c 2 -a 0 -i 3 -k RTR
h -t 15.167484624 -s 9 -d 13 -p cbr -e 556 -c 2 -a 0 -i 3 -k RTR
+ -t 15.169002644 -s 0 -d 3 -p cbr -e 556 -c 2 -a 0 -i 7 -k RTR 
- -t 15.169002644 -s 0 -d 3 -p cbr -e 556 -c 2 -a 0 -i 7 -k RTR
h -t 15.169002644 -s 0 -d 3 -p cbr -e 556 -c 2 -a 0 -i 7 -k RTR
+ -t 15.169622369 -s 4 -d 0 -p DSR -e 60 -c 2 -a 0 -i 12 -k RTR 
- -t 15.169622369 -s 4 -d 0 -p DSR -e 60 -c 2 -a 0 -i 12 -k RTR
h -t 15.169622369 -s 4 -d 0 -p DSR -e 60 -c 2 -a 0 -i 12 -k RTR
+ -t 15.177593605 -s 3 -d 9 -p cbr -e 532 -c 2 -a 0 -i 15 -k RTR 
- -t 15.177593605 -s 3 -d 9 -p cbr -e 532 -c 2 -a 0 -i 15 -k RTR
h -t 15.177593605 -s 3 -d 9 -p cbr -e 532 -c 2 -a 0 -i 15 -k RTR
+ -t 15.183598939 -s 3 -d 9 -p cbr -e 556 -c 2 -a 0 -i 7 -k RTR 
- -t 15.183598939 -s 3 -d 9 -p cbr -e 556 -c 2 -a 0 -i 7 -k RTR
h -t 15.183598939 -s 3 -d 9 -p cbr -e 556 -c 2 -a 0 -i 7 -k RTR
+ -t 15.189572939 -s 9 -d 13 -p cbr -e 532 -c 2 -a 0 -i 15 -k RTR 
- -t 15.189572939 -s 9 -d 13 -p cbr -e 532 -c 2 -a 0 -i 15 -k RTR
h -t 15.189572939 -s 9 -d 13 -p cbr -e 532 -c 2 -a 0 -i 15 -k RTR
+ -t 15.195479605 -s 9 -d 13 -p cbr -e 556 -c 2 -a 0 -i 7 -k RTR 
- -t 15.195479605 -s 9 -d 13 -p cbr -e 556 -c 2 -a 0 -i 7 -k RTR
h -t 15.195479605 -s 9 -d 13 -p cbr -e 556 -c 2 -a 0 -i 7 -k RTR
r -t 15.201545841 -s 13 -d 13 -p cbr -e 512 -c 2 -a 0 -i 3 -k AGT
r -t 15.207280823 -s 13 -d 13 -p cbr -e 512 -c 2 -a 0 -i 15 -k AGT
r -t 15.213527804 -s 13 -d 13 -p cbr -e 512 -c 2 -a 0 -i 7 -k AGT
+ -t 15.215253735 -s 0 -d -1 -p cbr -e 512 -c 2 -a 0 -i 16 -k AGT 
- -t 15.215253735 -s 0 -d -1 -p cbr -e 512 -c 2 -a 0 -i 16 -k AGT
h -t 15.215253735 -s 0 -d -1 -p cbr -e 512 -c 2 -a 0 -i 16 -k AGT
+ -t 15.215253735 -s 0 -d 3 -p cbr -e 532 -c 2 -a 0 -i 16 -k RTR 
- -t 15.215253735 -s 0 -d 3 -p cbr -e 532 -c 2 -a 0 -i 16 -k RTR
h -t 15.215253735 -s 0 -d 3 -p cbr -e 532 -c 2 -a 0 -i 16 -k RTR
+ -t 15.216154983 -s 4 -d 0 -p DSR -e 68 -c 2 -a 0 -i 14 -k RTR 
- -t 15.216154983 -s 4 -d 0 -p DSR -e 68 -c 2 -a 0 -i 14 -k RTR
h -t 15.216154983 -s 4 -d 0 -p DSR -e 68 -c 2 -a 0 -i 14 -k RTR
+ -t 15.222398729 -s 3 -d 9 -p cbr -e 532 -c 2 -a 0 -i 16 -k RTR 
- -t 15.222398729 -s 3 -d 9 -p cbr -e 532 -c 2 -a 0 -i 16 -k RTR
h -t 15.222398729 -s 3 -d 9 -p cbr -e 532 -c 2 -a 0 -i 16 -k RTR
+ -t 15.228112729 -s 9 -d 13 -p cbr -e 532 -c 2 -a 0 -i 16 -k RTR 
- -t 15.228112729 -s 9 -d 13 -p cbr -e 532 -c 2 -a 0 -i 16 -k RTR
h -t 15.228112729 -s 9 -d 13 -p cbr -e 532 -c 2 -a 0 -i 16 -k RTR
r -t 15.234086965 -s 13 -d 13 -p cbr -e 512 -c 2 -a 0 -i 16 -k AGT
+ -t 15.267189138 -s 0 -d -1 -p cbr -e 512 -c 2 -a 0 -i 17 -k AGT 
- -t 15.267189138 -s 0 -d -1 -p cbr -e 512 -c 2 -a 0 -i 17 -k AGT
h -t 15.267189138 -s 0 -d -1 -p cbr -e 512 -c 2 -a 0 -i 17 -k AGT
+ -t 15.267189138 -s 0 -d 3 -p cbr -e 532 -c 2 -a 0 -i 17 -k RTR 
- -t 15.267189138 -s 0 -d 3 -p cbr -e 532 -c 2 -a 0 -i 17 -k RTR
h -t 15.267189138 -s 0 -d 3 -p cbr -e 532 -c 2 -a 0 -i 17 -k RTR
+ -t 15.272658138 -s 3 -d 9 -p cbr -e 532 -c 2 -a 0 -i 17 -k RTR 
- -t 15.272658138 -s 3 -d 9 -p cbr -e 532 -c 2 -a 0 -i 17 -k RTR
h -t 15.272658138 -s 3 -d 9 -p cbr -e 532 -c 2 -a 0 -i 17 -k RTR
+ -t 15.278952138 -s 9 -d 13 -p cbr -e 532 -c 2 -a 0 -i 17 -k RTR 
- -t 15.278952138 -s 9 -d 13 -p cbr -e 532 -c 2 -a 0 -i 17 -k RTR
h -t 15.278952138 -s 9 -d 13 -p cbr -e 532 -c 2 -a 0 -i 17 -k RTR
r -t 15.284946374 -s 13 -d 13 -p cbr -e 512 -c 2 -a 0 -i 17 -k AGT
+ -t 15.306921179 -s 0 -d -1 -p cbr -e 512 -c 2 -a 0 -i 18 -k AGT 
- -t 15.306921179 -s 0 -d -1 -p cbr -e 512 -c 2 -a 0 -i 18 -k AGT
h -t 15.306921179 -s 0 -d -1 -p cbr -e 512 -c 2 -a 0 -i 18 -k AGT
+ -t 15.306921179 -s 0 -d 3 -p cbr -e 532 -c 2 -a 0 -i 18 -k RTR 
- -t 15.306921179 -s 0 -d 3 -p cbr -e 532 -c 2 -a 0 -i 18 -k RTR
h -t 15.306921179 -s 0 -d 3 -p cbr -e 532 -c 2 -a 0 -i 18 -k RTR
+ -t 15.312690179 -s 3 -d 9 -p cbr -e 532 -c 2 -a 0 -i 18 -k RTR 
- -t 15.312690179 -s 3 -d 9 -p cbr -e 532 -c 2 -a 0 -i 18 -k RTR
h -t 15.312690179 -s 3 -d 9 -p cbr -e 532 -c 2 -a 0 -i 18 -k RTR
+ -t 15.318504179 -s 9 -d 13 -p cbr -e 532 -c 2 -a 0 -i 18 -k RTR 
- -t 15.318504179 -s 9 -d 13 -p cbr -e 532 -c 2 -a 0 -i 18 -k RTR
h -t 15.318504179 -s 9 -d 13 -p cbr -e 532 -c 2 -a 0 -i 18 -k RTR
r -t 15.324458415 -s 13 -d 13 -p cbr -e 512 -c 2 -a 0 -i 18 -k AGT
+ -t 15.379873027 -s 0 -d -1 -p cbr -e 512 -c 2 -a 0 -i 19 -k AGT 
- -t 15.379873027 -s 0 -d -1 -p cbr -e 512 -c 2 -a 0 -i 19 -k AGT
h -t 15.379873027 -s 0 -d -1 -p cbr -e 512 -c 2 -a 0 -i 19 -k AGT
+ -t 15.379873027 -s 0 -d 3 -p cbr -e 532 -c 2 -a 0 -i 19 -k RTR 
- -t 15.379873027 -s 0 -d 3 -p cbr -e 532 -c 2 -a 0 -i 19 -k RTR
h -t 15.379873027 -s 0 -d 3 -p cbr -e 532 -c 2 -a 0 -i 19 -k RTR
+ -t 15.385662027 -s 3 -d 9 -p cbr -e 532 -c 2 -a 0 -i 19 -k RTR 
- -t 15.385662027 -s 3 -d 9 -p cbr -e 532 -c 2 -a 0 -i 19 -k RTR
h -t 15.385662027 -s 3 -d 9 -p cbr -e 532 -c 2 -a 0 -i 19 -k RTR
+ -t 15.391536027 -s 9 -d 13 -p cbr -e 532 -c 2 -a 0 -i 19 -k RTR 
- -t 15.391536027 -s 9 -d 13 -p cbr -e 532 -c 2 -a 0 -i 19 -k RTR
h -t 15.391536027 -s 9 -d 13 -p cbr -e 532 -c 2 -a 0 -i 19 -k RTR
r -t 15.397270263 -s 13 -d 13 -p cbr -e 512 -c 2 -a 0 -i 19 -k AGT
+ -t 15.432559035 -s 0 -d -1 -p cbr -e 512 -c 2 -a 0 -i 20 -k AGT 
- -t 15.432559035 -s 0 -d -1 -p cbr -e 512 -c 2 -a 0 -i 20 -k AGT
h -t 15.432559035 -s 0 -d -1 -p cbr -e 512 -c 2 -a 0 -i 20 -k AGT
+ -t 15.432559035 -s 0 -d 3 -p cbr -e 532 -c 2 -a 0 -i 20 -k RTR 
- -t 15.432559035 -s 0 -d 3 -p cbr -e 532 -c 2 -a 0 -i 20 -k RTR
h -t 15.432559035 -s 0 -d 3 -p cbr -e 532 -c 2 -a 0 -i 20 -k RTR
+ -t 15.438248035 -s 3 -d 9 -p cbr -e 532 -c 2 -a 0 -i 20 -k RTR 
- -t 15.438248035 -s 3 -d 9 -p cbr -e 532 -c 2 -a 0 -i 20 -k RTR
h -t 15.438248035 -s 3 -d 9 -p cbr -e 532 -c 2 -a 0 -i 20 -k RTR
+ -t 15.443982035 -s 9 -d 13 -p cbr -e 532 -c 2 -a 0 -i 20 -k RTR 
- -t 15.443982035 -s 9 -d 13 -p cbr -e 532 -c 2 -a 0 -i 20 -k RTR
h -t 15.443982035 -s 9 -d 13 -p cbr -e 532 -c 2 -a 0 -i 20 -k RTR
r -t 15.449856272 -s 13 -d 13 -p cbr -e 512 -c 2 -a 0 -i 20 -k AGT
+ -t 15.469223375 -s 0 -d -1 -p cbr -e 512 -c 2 -a 0 -i 21 -k AGT 
- -t 15.469223375 -s 0 -d -1 -p cbr -e 512 -c 2 -a 0 -i 21 -k AGT
h -t 15.469223375 -s 0 -d -1 -p cbr -e 512 -c 2 -a 0 -i 21 -k AGT
+ -t 15.469223375 -s 0 -d 3 -p cbr -e 532 -c 2 -a 0 -i 21 -k RTR 
- -t 15.469223375 -s 0 -d 3 -p cbr -e 532 -c 2 -a 0 -i 21 -k RTR
h -t 15.469223375 -s 0 -d 3 -p cbr -e 532 -c 2 -a 0 -i 21 -k RTR
+ -t 15.475152375 -s 3 -d 9 -p cbr -e 532 -c 2 -a 0 -i 21 -k RTR 
- -t 15.475152375 -s 3 -d 9 -p cbr -e 532 -c 2 -a 0 -i 21 -k RTR
h -t 15.475152375 -s 3 -d 9 -p cbr -e 532 -c 2 -a 0 -i 21 -k RTR
+ -t 15.481466375 -s 9 -d 13 -p cbr -e 532 -c 2 -a 0 -i 21 -k RTR 
- -t 15.481466375 -s 9 -d 13 -p cbr -e 532 -c 2 -a 0 -i 21 -k RTR
h -t 15.481466375 -s 9 -d 13 -p cbr -e 532 -c 2 -a 0 -i 21 -k RTR
r -t 15.487520611 -s 13 -d 13 -p cbr -e 512 -c 2 -a 0 -i 21 -k AGT
+ -t 15.536073267 -s 0 -d -1 -p cbr -e 512 -c 2 -a 0 -i 22 -k AGT 
- -t 15.536073267 -s 0 -d -1 -p cbr -e 512 -c 2 -a 0 -i 22 -k AGT
h -t 15.536073267 -s 0 -d -1 -p cbr -e 512 -c 2 -a 0 -i 22 -k AGT
+ -t 15.536073267 -s 0 -d 3 -p cbr -e 532 -c 2 -a 0 -i 22 -k RTR 
- -t 15.536073267 -s 0 -d 3 -p cbr -e 532 -c 2 -a 0 -i 22 -k RTR
h -t 15.536073267 -s 0 -d 3 -p cbr -e 532 -c 2 -a 0 -i 22 -k RTR
+ -t 15.541962267 -s 3 -d 9 -p cbr -e 532 -c 2 -a 0 -i 22 -k RTR 
- -t 15.541962267 -s 3 -d 9 -p cbr -e 532 -c 2 -a 0 -i 22 -k RTR
h -t 15.541962267 -s 3 -d 9 -p cbr -e 532 -c 2 -a 0 -i 22 -k RTR
+ -t 15.548256267 -s 9 -d 13 -p cbr -e 532 -c 2 -a 0 -i 22 -k RTR 
- -t 15.548256267 -s 9 -d 13 -p cbr -e 532 -c 2 -a 0 -i 22 -k RTR
h -t 15.548256267 -s 9 -d 13 -p cbr -e 532 -c 2 -a 0 -i 22 -k RTR
r -t 15.554230503 -s 13 -d 13 -p cbr -e 512 -c 2 -a 0 -i 22 -k AGT
+ -t 15.587875612 -s 0 -d -1 -p cbr -e 512 -c 2 -a 0 -i 23 -k AGT 
- -t 15.587875612 -s 0 -d -1 -p cbr -e 512 -c 2 -a 0 -i 23 -k AGT
h -t 15.587875612 -s 0 -d -1 -p cbr -e 512 -c 2 -a 0 -i 23 -k AGT
+ -t 15.587875612 -s 0 -d 3 -p cbr -e 532 -c 2 -a 0 -i 23 -k RTR 
- -t 15.587875612 -s 0 -d 3 -p cbr -e 532 -c 2 -a 0 -i 23 -k RTR
h -t 15.587875612 -s 0 -d 3 -p cbr -e 532 -c 2 -a 0 -i 23 -k RTR
+ -t 15.593824612 -s 3 -d 9 -p cbr -e 532 -c 2 -a 0 -i 23 -k RTR 
- -t 15.593824612 -s 3 -d 9 -p cbr -e 532 -c 2 -a 0 -i 23 -k RTR
h -t 15.593824612 -s 3 -d 9 -p cbr -e 532 -c 2 -a 0 -i 23 -k RTR
+ -t 15.600118612 -s 9 -d 13 -p cbr -e 532 -c 2 -a 0 -i 23 -k RTR 
- -t 15.600118612 -s 9 -d 13 -p cbr -e 532 -c 2 -a 0 -i 23 -k RTR
h -t 15.600118612 -s 9 -d 13 -p cbr -e 532 -c 2 -a 0 -i 23 -k RTR
r -t 15.606412848 -s 13 -d 13 -p cbr -e 512 -c 2 -a 0 -i 23 -k AGT
+ -t 15.635764167 -s 0 -d -1 -p cbr -e 512 -c 2 -a 0 -i 24 -k AGT 
- -t 15.635764167 -s 0 -d -1 -p cbr -e 512 -c 2 -a 0 -i 24 -k AGT
h -t 15.635764167 -s 0 -d -1 -p cbr -e 512 -c 2 -a 0 -i 24 -k AGT
+ -t 15.635764167 -s 0 -d 3 -p cbr -e 532 -c 2 -a 0 -i 24 -k RTR 
- -t 15.635764167 -s 0 -d 3 -p cbr -e 532 -c 2 -a 0 -i 24 -k RTR
h -t 15.635764167 -s 0 -d 3 -p cbr -e 532 -c 2 -a 0 -i 24 -k RTR
+ -t 15.641653167 -s 3 -d 9 -p cbr -e 532 -c 2 -a 0 -i 24 -k RTR 
- -t 15.641653167 -s 3 -d 9 -p cbr -e 532 -c 2 -a 0 -i 24 -k RTR
h -t 15.641653167 -s 3 -d 9 -p cbr -e 532 -c 2 -a 0 -i 24 -k RTR
+ -t 15.647887167 -s 9 -d 13 -p cbr -e 532 -c 2 -a 0 -i 24 -k RTR 
- -t 15.647887167 -s 9 -d 13 -p cbr -e 532 -c 2 -a 0 -i 24 -k RTR
h -t 15.647887167 -s 9 -d 13 -p cbr -e 532 -c 2 -a 0 -i 24 -k RTR
r -t 15.653721403 -s 13 -d 13 -p cbr -e 512 -c 2 -a 0 -i 24 -k AGT
+ -t 15.674829820 -s 0 -d -1 -p cbr -e 512 -c 2 -a 0 -i 25 -k AGT 
- -t 15.674829820 -s 0 -d -1 -p cbr -e 512 -c 2 -a 0 -i 25 -k AGT
h -t 15.674829820 -s 0 -d -1 -p cbr -e 512 -c 2 -a 0 -i 25 -k AGT
+ -t 15.674829820 -s 0 -d 3 -p cbr -e 532 -c 2 -a 0 -i 25 -k RTR 
- -t 15.674829820 -s 0 -d 3 -p cbr -e 532 -c 2 -a 0 -i 25 -k RTR
h -t 15.674829820 -s 0 -d 3 -p cbr -e 532 -c 2 -a 0 -i 25 -k RTR
+ -t 15.680498820 -s 3 -d 9 -p cbr -e 532 -c 2 -a 0 -i 25 -k RTR 
- -t 15.680498820 -s 3 -d 9 -p cbr -e 532 -c 2 -a 0 -i 25 -k RTR
h -t 15.680498820 -s 3 -d 9 -p cbr -e 532 -c 2 -a 0 -i 25 -k RTR
+ -t 15.686232820 -s 9 -d 13 -p cbr -e 532 -c 2 -a 0 -i 25 -k RTR 
- -t 15.686232820 -s 9 -d 13 -p cbr -e 532 -c 2 -a 0 -i 25 -k RTR
h -t 15.686232820 -s 9 -d 13 -p cbr -e 532 -c 2 -a 0 -i 25 -k RTR
r -t 15.692467056 -s 13 -d 13 -p cbr -e 512 -c 2 -a 0 -i 25 -k AGT
+ -t 15.748033058 -s 0 -d -1 -p cbr -e 512 -c 2 -a 0 -i 26 -k AGT 
- -t 15.748033058 -s 0 -d -1 -p cbr -e 512 -c 2 -a 0 -i 26 -k AGT
h -t 15.748033058 -s 0 -d -1 -p cbr -e 512 -c 2 -a 0 -i 26 -k AGT
+ -t 15.748033058 -s 0 -d 3 -p cbr -e 532 -c 2 -a 0 -i 26 -k RTR 
- -t 15.748033058 -s 0 -d 3 -p cbr -e 532 -c 2 -a 0 -i 26 -k RTR
h -t 15.748033058 -s 0 -d 3 -p cbr -e 532 -c 2 -a 0 -i 26 -k RTR
+ -t 15.753942058 -s 3 -d 9 -p cbr -e 532 -c 2 -a 0 -i 26 -k RTR 
- -t 15.753942058 -s 3 -d 9 -p cbr -e 532 -c 2 -a 0 -i 26 -k RTR
h -t 15.753942058 -s 3 -d 9 -p cbr -e 532 -c 2 -a 0 -i 26 -k RTR
+ -t 15.759696058 -s 9 -d 13 -p cbr -e 532 -c 2 -a 0 -i 26 -k RTR 
- -t 15.759696058 -s 9 -d 13 -p cbr -e 532 -c 2 -a 0 -i 26 -k RTR
h -t 15.759696058 -s 9 -d 13 -p cbr -e 532 -c 2 -a 0 -i 26 -k RTR
r -t 15.765610294 -s 13 -d 13 -p cbr -e 512 -c 2 -a 0 -i 26 -k AGT
+ -t 15.793074568 -s 0 -d -1 -p cbr -e 512 -c 2 -a 0 -i 27 -k AGT 
- -t 15.793074568 -s 0 -d -1 -p cbr -e 512 -c 2 -a 0 -i 27 -k AGT
h -t 15.793074568 -s 0 -d -1 -p cbr -e 512 -c 2 -a 0 -i 27 -k AGT
+ -t 15.793074568 -s 0 -d 3 -p cbr -e 532 -c 2 -a 0 -i 27 -k RTR 
- -t 15.793074568 -s 0 -d 3 -p cbr -e 532 -c 2 -a 0 -i 27 -k RTR
h -t 15.793074568 -s 0 -d 3 -p cbr -e 532 -c 2 -a 0 -i 27 -k RTR
+ -t 15.798823568 -s 3 -d 9 -p cbr -e 532 -c 2 -a 0 -i 27 -k RTR 
- -t 15.798823568 -s 3 -d 9 -p cbr -e 532 -c 2 -a 0 -i 27 -k RTR
h -t 15.798823568 -s 3 -d 9 -p cbr -e 532 -c 2 -a 0 -i 27 -k RTR
+ -t 15.805137568 -s 9 -d 13 -p cbr -e 532 -c 2 -a 0 -i 27 -k RTR 
- -t 15.805137568 -s 9 -d 13 -p cbr -e 532 -c 2 -a 0 -i 27 -k RTR
h -t 15.805137568 -s 9 -d 13 -p cbr -e 532 -c 2 -a 0 -i 27 -k RTR
r -t 15.810851804 -s 13 -d 13 -p cbr -e 512 -c 2 -a 0 -i 27 -k AGT
+ -t 15.850144542 -s 0 -d -1 -p cbr -e 512 -c 2 -a 0 -i 28 -k AGT 
- -t 15.850144542 -s 0 -d -1 -p cbr -e 512 -c 2 -a 0 -i 28 -k AGT
h -t 15.850144542 -s 0 -d -1 -p cbr -e 512 -c 2 -a 0 -i 28 -k AGT
+ -t 15.850144542 -s 0 -d 3 -p cbr -e 532 -c 2 -a 0 -i 28 -k RTR 
- -t 15.850144542 -s 0 -d 3 -p cbr -e 532 -c 2 -a 0 -i 28 -k RTR
h -t 15.850144542 -s 0 -d 3 -p cbr -e 532 -c 2 -a 0 -i 28 -k RTR
+ -t 15.856113542 -s 3 -d 9 -p cbr -e 532 -c 2 -a 0 -i 28 -k RTR 
- -t 15.856113542 -s 3 -d 9 -p cbr -e 532 -c 2 -a 0 -i 28 -k RTR
h -t 15.856113542 -s 3 -d 9 -p cbr -e 532 -c 2 -a 0 -i 28 -k RTR
+ -t 15.861967542 -s 9 -d 13 -p cbr -e 532 -c 2 -a 0 -i 28 -k RTR 
- -t 15.861967542 -s 9 -d 13 -p cbr -e 532 -c 2 -a 0 -i 28 -k RTR
h -t 15.861967542 -s 9 -d 13 -p cbr -e 532 -c 2 -a 0 -i 28 -k RTR
r -t 15.867781778 -s 13 -d 13 -p cbr -e 512 -c 2 -a 0 -i 28 -k AGT
+ -t 15.915983045 -s 0 -d -1 -p cbr -e 512 -c 2 -a 0 -i 29 -k AGT 
- -t 15.915983045 -s 0 -d -1 -p cbr -e 512 -c 2 -a 0 -i 29 -k AGT
h -t 15.915983045 -s 0 -d -1 -p cbr -e 512 -c 2 -a 0 -i 29 -k AGT
+ -t 15.915983045 -s 0 -d 3 -p cbr -e 532 -c 2 -a 0 -i 29 -k RTR 
- -t 15.915983045 -s 0 -d 3 -p cbr -e 532 -c 2 -a 0 -i 29 -k RTR
h -t 15.915983045 -s 0 -d 3 -p cbr -e 532 -c 2 -a 0 -i 29 -k RTR
+ -t 15.921452045 -s 3 -d 9 -p cbr -e 532 -c 2 -a 0 -i 29 -k RTR 
- -t 15.921452045 -s 3 -d 9 -p cbr -e 532 -c 2 -a 0 -i 29 -k RTR
h -t 15.921452045 -s 3 -d 9 -p cbr -e 532 -c 2 -a 0 -i 29 -k RTR
+ -t 15.927466045 -s 9 -d 13 -p cbr -e 532 -c 2 -a 0 -i 29 -k RTR 
- -t 15.927466045 -s 9 -d 13 -p cbr -e 532 -c 2 -a 0 -i 29 -k RTR
h -t 15.927466045 -s 9 -d 13 -p cbr -e 532 -c 2 -a 0 -i 29 -k RTR
r -t 15.933280281 -s 13 -d 13 -p cbr -e 512 -c 2 -a 0 -i 29 -k AGT
+ -t 15.968692520 -s 0 -d -1 -p cbr -e 512 -c 2 -a 0 -i 30 -k AGT 
- -t 15.968692520 -s 0 -d -1 -p cbr -e 512 -c 2 -a 0 -i 30 -k AGT
h -t 15.968692520 -s 0 -d -1 -p cbr -e 512 -c 2 -a 0 -i 30 -k AGT
+ -t 15.968692520 -s 0 -d 3 -p cbr -e 532 -c 2 -a 0 -i 30 -k RTR 
- -t 15.968692520 -s 0 -d 3 -p cbr -e 532 -c 2 -a 0 -i 30 -k RTR
h -t 15.968692520 -s 0 -d 3 -p cbr -e 532 -c 2 -a 0 -i 30 -k RTR
+ -t 15.974621520 -s 3 -d 9 -p cbr -e 532 -c 2 -a 0 -i 30 -k RTR 
- -t 15.974621520 -s 3 -d 9 -p cbr -e 532 -c 2 -a 0 -i 30 -k RTR
h -t 15.974621520 -s 3 -d 9 -p cbr -e 532 -c 2 -a 0 -i 30 -k RTR
+ -t 15.980535520 -s 9 -d 13 -p cbr -e 532 -c 2 -a 0 -i 30 -k RTR 
- -t 15.980535520 -s 9 -d 13 -p cbr -e 532 -c 2 -a 0 -i 30 -k RTR
h -t 15.980535520 -s 9 -d 13 -p cbr -e 532 -c 2 -a 0 -i 30 -k RTR
r -t 15.986289756 -s 13 -d 13 -p cbr -e 512 -c 2 -a 0 -i 30 -k AGT
+ -t 16.025035210 -s 0 -d -1 -p cbr -e 512 -c 2 -a 0 -i 31 -k AGT 
- -t 16.025035210 -s 0 -d -1 -p cbr -e 512 -c 2 -a 0 -i 31 -k AGT
h -t 16.025035210 -s 0 -d -1 -p cbr -e 512 -c 2 -a 0 -i 31 -k AGT
+ -t 16.025035210 -s 0 -d 3 -p cbr -e 532 -c 2 -a 0 -i 31 -k RTR 
- -t 16.025035210 -s 0 -d 3 -p cbr -e 532 -c 2 -a 0 -i 31 -k RTR
h -t 16.025035210 -s 0 -d 3 -p cbr -e 532 -c 2 -a 0 -i 31 -k RTR
+ -t 16.030644210 -s 3 -d 9 -p cbr -e 532 -c 2 -a 0 -i 31 -k RTR 
- -t 16.030644210 -s 3 -d 9 -p cbr -e 532 -c 2 -a 0 -i 31 -k RTR
h -t 16.030644210 -s 3 -d 9 -p cbr -e 532 -c 2 -a 0 -i 31 -k RTR
+ -t 16.036698210 -s 9 -d 13 -p cbr -e 532 -c 2 -a 0 -i 31 -k RTR 
- -t 16.036698210 -s 9 -d 13 -p cbr -e 532 -c 2 -a 0 -i 31 -k RTR
h -t 16.036698210 -s 9 -d 13 -p cbr -e 532 -c 2 -a 0 -i 31 -k RTR
r -t 16.042432446 -s 13 -d 13 -p cbr -e 512 -c 2 -a 0 -i 31 -k AGT
+ -t 16.051618423 -s 0 -d -1 -p cbr -e 512 -c 2 -a 0 -i 32 -k AGT 
- -t 16.051618423 -s 0 -d -1 -p cbr -e 512 -c 2 -a 0 -i 32 -k AGT
h -t 16.051618423 -s 0 -d -1 -p cbr -e 512 -c 2 -a 0 -i 32 -k AGT
+ -t 16.051618423 -s 0 -d 3 -p cbr -e 532 -c 2 -a 0 -i 32 -k RTR 
- -t 16.051618423 -s 0 -d 3 -p cbr -e 532 -c 2 -a 0 -i 32 -k RTR
h -t 16.051618423 -s 0 -d 3 -p cbr -e 532 -c 2 -a 0 -i 32 -k RTR
+ -t 16.057427423 -s 3 -d 9 -p cbr -e 532 -c 2 -a 0 -i 32 -k RTR 
- -t 16.057427423 -s 3 -d 9 -p cbr -e 532 -c 2 -a 0 -i 32 -k RTR
h -t 16.057427423 -s 3 -d 9 -p cbr -e 532 -c 2 -a 0 -i 32 -k RTR
+ -t 16.063181423 -s 9 -d 13 -p cbr -e 532 -c 2 -a 0 -i 32 -k RTR 
- -t 16.063181423 -s 9 -d 13 -p cbr -e 532 -c 2 -a 0 -i 32 -k RTR
h -t 16.063181423 -s 9 -d 13 -p cbr -e 532 -c 2 -a 0 -i 32 -k RTR
r -t 16.069215659 -s 13 -d 13 -p cbr -e 512 -c 2 -a 0 -i 32 -k AGT
+ -t 16.105820339 -s 0 -d -1 -p cbr -e 512 -c 2 -a 0 -i 33 -k AGT 
- -t 16.105820339 -s 0 -d -1 -p cbr -e 512 -c 2 -a 0 -i 33 -k AGT
h -t 16.105820339 -s 0 -d -1 -p cbr -e 512 -c 2 -a 0 -i 33 -k AGT
+ -t 16.105820339 -s 0 -d 3 -p cbr -e 532 -c 2 -a 0 -i 33 -k RTR 
- -t 16.105820339 -s 0 -d 3 -p cbr -e 532 -c 2 -a 0 -i 33 -k RTR
h -t 16.105820339 -s 0 -d 3 -p cbr -e 532 -c 2 -a 0 -i 33 -k RTR
+ -t 16.111549339 -s 3 -d 9 -p cbr -e 532 -c 2 -a 0 -i 33 -k RTR 
- -t 16.111549339 -s 3 -d 9 -p cbr -e 532 -c 2 -a 0 -i 33 -k RTR
h -t 16.111549339 -s 3 -d 9 -p cbr -e 532 -c 2 -a 0 -i 33 -k RTR
+ -t 16.117823339 -s 9 -d 13 -p cbr -e 532 -c 2 -a 0 -i 33 -k RTR 
- -t 16.117823339 -s 9 -d 13 -p cbr -e 532 -c 2 -a 0 -i 33 -k RTR
h -t 16.117823339 -s 9 -d 13 -p cbr -e 532 -c 2 -a 0 -i 33 -k RTR
r -t 16.123697575 -s 13 -d 13 -p cbr -e 512 -c 2 -a 0 -i 33 -k AGT
+ -t 16.167105361 -s 0 -d -1 -p cbr -e 512 -c 2 -a 0 -i 34 -k AGT 
- -t 16.167105361 -s 0 -d -1 -p cbr -e 512 -c 2 -a 0 -i 34 -k AGT
h -t 16.167105361 -s 0 -d -1 -p cbr -e 512 -c 2 -a 0 -i 34 -k AGT
+ -t 16.167105361 -s 0 -d 3 -p cbr -e 532 -c 2 -a 0 -i 34 -k RTR 
- -t 16.167105361 -s 0 -d 3 -p cbr -e 532 -c 2 -a 0 -i 34 -k RTR
h -t 16.167105361 -s 0 -d 3 -p cbr -e 532 -c 2 -a 0 -i 34 -k RTR
+ -t 16.173114361 -s 3 -d 9 -p cbr -e 532 -c 2 -a 0 -i 34 -k RTR 
- -t 16.173114361 -s 3 -d 9 -p cbr -e 532 -c 2 -a 0 -i 34 -k RTR
h -t 16.173114361 -s 3 -d 9 -p cbr -e 532 -c 2 -a 0 -i 34 -k RTR
+ -t 16.178928361 -s 9 -d 13 -p cbr -e 532 -c 2 -a 0 -i 34 -k RTR 
- -t 16.178928361 -s 9 -d 13 -p cbr -e 532 -c 2 -a 0 -i 34 -k RTR
h -t 16.178928361 -s 9 -d 13 -p cbr -e 532 -c 2 -a 0 -i 34 -k RTR
r -t 16.185042597 -s 13 -d 13 -p cbr -e 512 -c 2 -a 0 -i 34 -k AGT
+ -t 16.238882107 -s 0 -d -1 -p cbr -e 512 -c 2 -a 0 -i 35 -k AGT 
- -t 16.238882107 -s 0 -d -1 -p cbr -e 512 -c 2 -a 0 -i 35 -k AGT
h -t 16.238882107 -s 0 -d -1 -p cbr -e 512 -c 2 -a 0 -i 35 -k AGT
+ -t 16.238882107 -s 0 -d 3 -p cbr -e 532 -c 2 -a 0 -i 35 -k RTR 
- -t 16.238882107 -s 0 -d 3 -p cbr -e 532 -c 2 -a 0 -i 35 -k RTR
h -t 16.238882107 -s 0 -d 3 -p cbr -e 532 -c 2 -a 0 -i 35 -k RTR
+ -t 16.244671107 -s 3 -d 9 -p cbr -e 532 -c 2 -a 0 -i 35 -k RTR 
- -t 16.244671107 -s 3 -d 9 -p cbr -e 532 -c 2 -a 0 -i 35 -k RTR
h -t 16.244671107 -s 3 -d 9 -p cbr -e 532 -c 2 -a 0 -i 35 -k RTR
+ -t 16.250665107 -s 9 -d 13 -p cbr -e 532 -c 2 -a 0 -i 35 -k RTR 
- -t 16.250665107 -s 9 -d 13 -p cbr -e 532 -c 2 -a 0 -i 35 -k RTR
h -t 16.250665107 -s 9 -d 13 -p cbr -e 532 -c 2 -a 0 -i 35 -k RTR
r -t 16.256399343 -s 13 -d 13 -p cbr -e 512 -c 2 -a 0 -i 35 -k AGT
+ -t 16.305255169 -s 0 -d -1 -p cbr -e 512 -c 2 -a 0 -i 36 -k AGT 
- -t 16.305255169 -s 0 -d -1 -p cbr -e 512 -c 2 -a 0 -i 36 -k AGT
h -t 16.305255169 -s 0 -d -1 -p cbr -e 512 -c 2 -a 0 -i 36 -k AGT
+ -t 16.305255169 -s 0 -d 3 -p cbr -e 532 -c 2 -a 0 -i 36 -k RTR 
- -t 16.305255169 -s 0 -d 3 -p cbr -e 532 -c 2 -a 0 -i 36 -k RTR
h -t 16.305255169 -s 0 -d 3 -p cbr -e 532 -c 2 -a 0 -i 36 -k RTR
+ -t 16.311104169 -s 3 -d 9 -p cbr -e 532 -c 2 -a 0 -i 36 -k RTR 
- -t 16.311104169 -s 3 -d 9 -p cbr -e 532 -c 2 -a 0 -i 36 -k RTR
h -t 16.311104169 -s 3 -d 9 -p cbr -e 532 -c 2 -a 0 -i 36 -k RTR
+ -t 16.317158169 -s 9 -d 13 -p cbr -e 532 -c 2 -a 0 -i 36 -k RTR 
- -t 16.317158169 -s 9 -d 13 -p cbr -e 532 -c 2 -a 0 -i 36 -k RTR
h -t 16.317158169 -s 9 -d 13 -p cbr -e 532 -c 2 -a 0 -i 36 -k RTR
r -t 16.323012405 -s 13 -d 13 -p cbr -e 512 -c 2 -a 0 -i 36 -k AGT
+ -t 16.366914432 -s 0 -d -1 -p cbr -e 512 -c 2 -a 0 -i 37 -k AGT 
- -t 16.366914432 -s 0 -d -1 -p cbr -e 512 -c 2 -a 0 -i 37 -k AGT
h -t 16.366914432 -s 0 -d -1 -p cbr -e 512 -c 2 -a 0 -i 37 -k AGT
+ -t 16.366914432 -s 0 -d 3 -p cbr -e 532 -c 2 -a 0 -i 37 -k RTR 
- -t 16.366914432 -s 0 -d 3 -p cbr -e 532 -c 2 -a 0 -i 37 -k RTR
h -t 16.366914432 -s 0 -d 3 -p cbr -e 532 -c 2 -a 0 -i 37 -k RTR
+ -t 16.372463432 -s 3 -d 9 -p cbr -e 532 -c 2 -a 0 -i 37 -k RTR 
- -t 16.372463432 -s 3 -d 9 -p cbr -e 532 -c 2 -a 0 -i 37 -k RTR
h -t 16.372463432 -s 3 -d 9 -p cbr -e 532 -c 2 -a 0 -i 37 -k RTR
+ -t 16.378237432 -s 9 -d 13 -p cbr -e 532 -c 2 -a 0 -i 37 -k RTR 
- -t 16.378237432 -s 9 -d 13 -p cbr -e 532 -c 2 -a 0 -i 37 -k RTR
h -t 16.378237432 -s 9 -d 13 -p cbr -e 532 -c 2 -a 0 -i 37 -k RTR