Sconfig 0.00000 tap: on snoop: rts? on errs? on
Sconfig 0.00000 salvage: on !bd replies? on
Sconfig 0.00000 grat error: on grat reply: on
Sconfig 0.00000 $reply for props: on ring 0 search: on
Sconfig 0.00000 using MOBICACHE
s 15.000000000 _0_ AGT  --- 0 tcp 40 [0 0 0 0] ------- [0:0 16:0 32 0] [0 0] 0 0
r 15.000000000 _0_ RTR  --- 0 tcp 40 [0 0 0 0] ------- [0:0 16:0 32 0] [0 0] 0 0
s 15.002342658 _0_ RTR  --- 1 DSR 32 [0 0 0 0] ------- [0:255 16:255 32 0] 1 [1 1] [0 1 0 0->0] [0 0 0 0->0]
r 15.003194991 _3_ RTR  --- 1 DSR 32 [0 ffffffff 0 800] ------- [0:255 16:255 32 0] 1 [1 1] [0 1 0 0->0] [0 0 0 0->0]
r 15.003195129 _27_ RTR  --- 1 DSR 32 [0 ffffffff 0 800] ------- [0:255 16:255 32 0] 1 [1 1] [0 1 0 0->0] [0 0 0 0->0]
r 15.003195324 _6_ RTR  --- 1 DSR 32 [0 ffffffff 0 800] ------- [0:255 16:255 32 0] 1 [1 1] [0 1 0 0->0] [0 0 0 0->0]
r 15.003195324 _1_ RTR  --- 1 DSR 32 [0 ffffffff 0 800] ------- [0:255 16:255 32 0] 1 [1 1] [0 1 0 0->0] [0 0 0 0->0]
r 15.003195403 _25_ RTR  --- 1 DSR 32 [0 ffffffff 0 800] ------- [0:255 16:255 32 0] 1 [1 1] [0 1 0 0->0] [0 0 0 0->0]
r 15.003195403 _4_ RTR  --- 1 DSR 32 [0 ffffffff 0 800] ------- [0:255 16:255 32 0] 1 [1 1] [0 1 0 0->0] [0 0 0 0->0]
s 15.050841065 _0_ RTR  --- 2 DSR 32 [0 0 0 0] ------- [0:255 16:255 32 0] 1 [1 2] [0 2 0 0->16] [0 0 0 0->0]
r 15.052053398 _3_ RTR  --- 2 DSR 32 [0 ffffffff 0 800] ------- [0:255 16:255 32 0] 1 [1 2] [0 2 0 0->16] [0 0 0 0->0]
r 15.052053537 _27_ RTR  --- 2 DSR 32 [0 ffffffff 0 800] ------- [0:255 16:255 32 0] 1 [1 2] [0 2 0 0->16] [0 0 0 0->0]
r 15.052053732 _6_ RTR  --- 2 DSR 32 [0 ffffffff 0 800] ------- [0:255 16:255 32 0] 1 [1 2] [0 2 0 0->16] [0 0 0 0->0]
r 15.052053732 _1_ RTR  --- 2 DSR 32 [0 ffffffff 0 800] ------- [0:255 16:255 32 0] 1 [1 2] [0 2 0 0->16] [0 0 0 0->0]
r 15.052053810 _25_ RTR  --- 2 DSR 32 [0 ffffffff 0 800] ------- [0:255 16:255 32 0] 1 [1 2] [0 2 0 0->16] [0 0 0 0->0]
r 15.052053810 _4_ RTR  --- 2 DSR 32 [0 ffffffff 0 800] ------- [0:255 16:255 32 0] 1 [1 2] [0 2 0 0->16] [0 0 0 0->0]
f 15.052641284 _3_ RTR  --- 2 DSR 48 [0 ffffffff 0 800] ------- [0:255 16:255 32 0] 2 [1 2] [0 2 0 0->16] [0 0 0 0->0]
r 15.053541617 _0_ RTR  --- 2 DSR 48 [0 ffffffff 3 800] ------- [0:255 16:255 32 0] 2 [1 2] [0 2 0 0->16] [0 0 0 0->0]
r 15.053541617 _6_ RTR  --- 2 DSR 48 [0 ffffffff 3 800] ------- [0:255 16:255 32 0] 2 [1 2] [0 2 0 0->16] [0 0 0 0->0]
r 15.053541617 _27_ RTR  --- 2 DSR 48 [0 ffffffff 3 800] ------- [0:255 16:255 32 0] 2 [1 2] [0 2 0 0->16] [0 0 0 0->0]
r 15.053541755 _25_ RTR  --- 2 DSR 48 [0 ffffffff 3 800] ------- [0:255 16:255 32 0] 2 [1 2] [0 2 0 0->16] [0 0 0 0->0]
r 15.053541950 _9_ RTR  --- 2 DSR 48 [0 ffffffff 3 800] ------- [0:255 16:255 32 0] 2 [1 2] [0 2 0 0->16] [0 0 0 0->0]
r 15.053541950 _4_ RTR  --- 2 DSR 48 [0 ffffffff 3 800] ------- [0:255 16:255 32 0] 2 [1 2] [0 2 0 0->16] [0 0 0 0->0]
r 15.053542029 _23_ RTR  --- 2 DSR 48 [0 ffffffff 3 800] ------- [0:255 16:255 32 0] 2 [1 2] [0 2 0 0->16] [0 0 0 0->0]
r 15.053542029 _1_ RTR  --- 2 DSR 48 [0 ffffffff 3 800] ------- [0:255 16:255 32 0] 2 [1 2] [0 2 0 0->16] [0 0 0 0->0]
r 15.053542029 _7_ RTR  --- 2 DSR 48 [0 ffffffff 3 800] ------- [0:255 16:255 32 0] 2 [1 2] [0 2 0 0->16] [0 0 0 0->0]
f 15.054552798 _6_ RTR  --- 2 DSR 48 [0 ffffffff 0 800] ------- [0:255 16:255 32 0] 2 [1 2] [0 2 0 0->16] [0 0 0 0->0]
f 15.054677064 _23_ RTR  --- 2 DSR 68 [0 ffffffff 3 800] ------- [0:255 16:255 32 0] 3 [1 2] [0 2 0 0->16] [0 0 0 0->0]
r 15.055713131 _3_ RTR  --- 2 DSR 48 [0 ffffffff 6 800] ------- [0:255 16:255 32 0] 2 [1 2] [0 2 0 0->16] [0 0 0 0->0]
r 15.055713131 _9_ RTR  --- 2 DSR 48 [0 ffffffff 6 800] ------- [0:255 16:255 32 0] 2 [1 2] [0 2 0 0->16] [0 0 0 0->0]
r 15.055713131 _25_ RTR  --- 2 DSR 48 [0 ffffffff 6 800] ------- [0:255 16:255 32 0] 2 [1 2] [0 2 0 0->16] [0 0 0 0->0]
r 15.055713269 _23_ RTR  --- 2 DSR 48 [0 ffffffff 6 800] ------- [0:255 16:255 32 0] 2 [1 2] [0 2 0 0->16] [0 0 0 0->0]
r 15.055713269 _27_ RTR  --- 2 DSR 48 [0 ffffffff 6 800] ------- [0:255 16:255 32 0] 2 [1 2] [0 2 0 0->16] [0 0 0 0->0]
r 15.055713465 _0_ RTR  --- 2 DSR 48 [0 ffffffff 6 800] ------- [0:255 16:255 32 0] 2 [1 2] [0 2 0 0->16] [0 0 0 0->0]
r 15.055713465 _12_ RTR  --- 2 DSR 48 [0 ffffffff 6 800] ------- [0:255 16:255 32 0] 2 [1 2] [0 2 0 0->16] [0 0 0 0->0]
r 15.055713465 _7_ RTR  --- 2 DSR 48 [0 ffffffff 6 800] ------- [0:255 16:255 32 0] 2 [1 2] [0 2 0 0->16] [0 0 0 0->0]
r 15.055713543 _21_ RTR  --- 2 DSR 48 [0 ffffffff 6 800] ------- [0:255 16:255 32 0] 2 [1 2] [0 2 0 0->16] [0 0 0 0->0]
r 15.055713543 _4_ RTR  --- 2 DSR 48 [0 ffffffff 6 800] ------- [0:255 16:255 32 0] 2 [1 2] [0 2 0 0->16] [0 0 0 0->0]
r 15.055713543 _10_ RTR  --- 2 DSR 48 [0 ffffffff 6 800] ------- [0:255 16:255 32 0] 2 [1 2] [0 2 0 0->16] [0 0 0 0->0]
r 15.057143603 _21_ RTR  --- 2 DSR 68 [0 ffffffff 17 800] ------- [0:255 16:255 32 0] 3 [1 2] [0 2 0 0->16] [0 0 0 0->0]
r 15.057143603 _9_ RTR  --- 2 DSR 68 [0 ffffffff 17 800] ------- [0:255 16:255 32 0] 3 [1 2] [0 2 0 0->16] [0 0 0 0->0]
r 15.057143603 _25_ RTR  --- 2 DSR 68 [0 ffffffff 17 800] ------- [0:255 16:255 32 0] 3 [1 2] [0 2 0 0->16] [0 0 0 0->0]
r 15.057143603 _10_ RTR  --- 2 DSR 68 [0 ffffffff 17 800] ------- [0:255 16:255 32 0] 3 [1 2] [0 2 0 0->16] [0 0 0 0->0]
r 15.057143741 _12_ RTR  --- 2 DSR 68 [0 ffffffff 17 800] ------- [0:255 16:255 32 0] 3 [1 2] [0 2 0 0->16] [0 0 0 0->0]
r 15.057143741 _6_ RTR  --- 2 DSR 68 [0 ffffffff 17 800] ------- [0:255 16:255 32 0] 3 [1 2] [0 2 0 0->16] [0 0 0 0->0]
r 15.057143741 _7_ RTR  --- 2 DSR 68 [0 ffffffff 17 800] ------- [0:255 16:255 32 0] 3 [1 2] [0 2 0 0->16] [0 0 0 0->0]
r 15.057143741 _13_ RTR  --- 2 DSR 68 [0 ffffffff 17 800] ------- [0:255 16:255 32 0] 3 [1 2] [0 2 0 0->16] [0 0 0 0->0]
r 15.057143936 _19_ RTR  --- 2 DSR 68 [0 ffffffff 17 800] ------- [0:255 16:255 32 0] 3 [1 2] [0 2 0 0->16] [0 0 0 0->0]
r 15.057143936 _27_ RTR  --- 2 DSR 68 [0 ffffffff 17 800] ------- [0:255 16:255 32 0] 3 [1 2] [0 2 0 0->16] [0 0 0 0->0]
r 15.057143936 _22_ RTR  --- 2 DSR 68 [0 ffffffff 17 800] ------- [0:255 16:255 32 0] 3 [1 2] [0 2 0 0->16] [0 0 0 0->0]
r 15.057144015 _15_ RTR  --- 2 DSR 68 [0 ffffffff 17 800] ------- [0:255 16:255 32 0] 3 [1 2] [0 2 0 0->16] [0 0 0 0->0]
r 15.057144015 _3_ RTR  --- 2 DSR 68 [0 ffffffff 17 800] ------- [0:255 16:255 32 0] 3 [1 2] [0 2 0 0->16] [0 0 0 0->0]
r 15.057144015 _4_ RTR  --- 2 DSR 68 [0 ffffffff 17 800] ------- [0:255 16:255 32 0] 3 [1 2] [0 2 0 0->16] [0 0 0 0->0]
r 15.057144015 _16_ RTR  --- 2 DSR 68 [0 ffffffff 17 800] ------- [0:255 16:255 32 0] 3 [1 2] [0 2 0 0->16] [0 0 0 0->0]
r 15.057144015 _20_ RTR  --- 2 DSR 68 [0 ffffffff 17 800] ------- [0:255 16:255 32 0] 3 [1 2] [0 2 0 0->16] [0 0 0 0->0]
r 15.057144015 _24_ RTR  --- 2 DSR 68 [0 ffffffff 17 800] ------- [0:255 16:255 32 0] 3 [1 2] [0 2 0 0->16] [0 0 0 0->0]
f 15.057507411 _12_ RTR  --- 2 DSR 68 [0 ffffffff 6 800] ------- [0:255 16:255 32 0] 3 [1 2] [0 2 0 0->16] [0 0 0 0->0]
f 15.057508211 _19_ RTR  --- 2 DSR 92 [0 ffffffff 17 800] ------- [0:255 16:255 32 0] 4 [1 2] [0 2 0 0->16] [0 0 0 0->0]
f 15.058243575 _22_ RTR  --- 2 DSR 92 [0 ffffffff 17 800] ------- [0:255 16:255 32 0] 4 [1 2] [0 2 0 0->16] [0 0 0 0->0]
f 15.058529492 _21_ RTR  --- 2 DSR 68 [0 ffffffff 6 800] ------- [0:255 16:255 32 0] 3 [1 2] [0 2 0 0->16] [0 0 0 0->0]
r 15.058907744 _9_ RTR  --- 2 DSR 68 [0 ffffffff c 800] ------- [0:255 16:255 32 0] 3 [1 2] [0 2 0 0->16] [0 0 0 0->0]
r 15.058907744 _15_ RTR  --- 2 DSR 68 [0 ffffffff c 800] ------- [0:255 16:255 32 0] 3 [1 2] [0 2 0 0->16] [0 0 0 0->0]
r 15.058907744 _21_ RTR  --- 2 DSR 68 [0 ffffffff c 800] ------- [0:255 16:255 32 0] 3 [1 2] [0 2 0 0->16] [0 0 0 0->0]
r 15.058907882 _19_ RTR  --- 2 DSR 68 [0 ffffffff c 800] ------- [0:255 16:255 32 0] 3 [1 2] [0 2 0 0->16] [0 0 0 0->0]
r 15.058907882 _23_ RTR  --- 2 DSR 68 [0 ffffffff c 800] ------- [0:255 16:255 32 0] 3 [1 2] [0 2 0 0->16] [0 0 0 0->0]
r 15.058908077 _6_ RTR  --- 2 DSR 68 [0 ffffffff c 800] ------- [0:255 16:255 32 0] 3 [1 2] [0 2 0 0->16] [0 0 0 0->0]
r 15.058908077 _13_ RTR  --- 2 DSR 68 [0 ffffffff c 800] ------- [0:255 16:255 32 0] 3 [1 2] [0 2 0 0->16] [0 0 0 0->0]
r 15.058908156 _25_ RTR  --- 2 DSR 68 [0 ffffffff c 800] ------- [0:255 16:255 32 0] 3 [1 2] [0 2 0 0->16] [0 0 0 0->0]
r 15.058908156 _10_ RTR  --- 2 DSR 68 [0 ffffffff c 800] ------- [0:255 16:255 32 0] 3 [1 2] [0 2 0 0->16] [0 0 0 0->0]
r 15.058908156 _16_ RTR  --- 2 DSR 68 [0 ffffffff c 800] ------- [0:255 16:255 32 0] 3 [1 2] [0 2 0 0->16] [0 0 0 0->0]
f 15.059301382 _25_ RTR  --- 2 DSR 48 [0 ffffffff 0 800] ------- [0:255 16:255 32 0] 2 [1 2] [0 2 0 0->16] [0 0 0 0->0]
f 15.059608801 _13_ RTR  --- 2 DSR 92 [0 ffffffff 17 800] ------- [0:255 16:255 32 0] 4 [1 2] [0 2 0 0->16] [0 0 0 0->0]
f 15.059874143 _27_ RTR  --- 2 DSR 48 [0 ffffffff 0 800] ------- [0:255 16:255 32 0] 2 [1 2] [0 2 0 0->16] [0 0 0 0->0]
r 15.060130216 _15_ RTR  --- 2 DSR 92 [0 ffffffff 13 800] ------- [0:255 16:255 32 0] 4 [1 2] [0 2 0 0->16] [0 0 0 0->0]
r 15.060130216 _21_ RTR  --- 2 DSR 92 [0 ffffffff 13 800] ------- [0:255 16:255 32 0] 4 [1 2] [0 2 0 0->16] [0 0 0 0->0]
r 15.060130216 _16_ RTR  --- 2 DSR 92 [0 ffffffff 13 800] ------- [0:255 16:255 32 0] 4 [1 2] [0 2 0 0->16] [0 0 0 0->0]
r 15.060130354 _12_ RTR  --- 2 DSR 92 [0 ffffffff 13 800] ------- [0:255 16:255 32 0] 4 [1 2] [0 2 0 0->16] [0 0 0 0->0]
r 15.060130354 _13_ RTR  --- 2 DSR 92 [0 ffffffff 13 800] ------- [0:255 16:255 32 0] 4 [1 2] [0 2 0 0->16] [0 0 0 0->0]
r 15.060130549 _23_ RTR  --- 2 DSR 92 [0 ffffffff 13 800] ------- [0:255 16:255 32 0] 4 [1 2] [0 2 0 0->16] [0 0 0 0->0]
r 15.060130549 _18_ RTR  --- 2 DSR 92 [0 ffffffff 13 800] ------- [0:255 16:255 32 0] 4 [1 2] [0 2 0 0->16] [0 0 0 0->0]
r 15.060130628 _9_ RTR  --- 2 DSR 92 [0 ffffffff 13 800] ------- [0:255 16:255 32 0] 4 [1 2] [0 2 0 0->16] [0 0 0 0->0]
r 15.060130628 _10_ RTR  --- 2 DSR 92 [0 ffffffff 13 800] ------- [0:255 16:255 32 0] 4 [1 2] [0 2 0 0->16] [0 0 0 0->0]
r 15.060130628 _20_ RTR  --- 2 DSR 92 [0 ffffffff 13 800] ------- [0:255 16:255 32 0] 4 [1 2] [0 2 0 0->16] [0 0 0 0->0]
f 15.060338769 _7_ RTR  --- 2 DSR 68 [0 ffffffff 3 800] ------- [0:255 16:255 32 0] 3 [1 2] [0 2 0 0->16] [0 0 0 0->0]
f 15.060345301 _24_ RTR  --- 2 DSR 92 [0 ffffffff 17 800] ------- [0:255 16:255 32 0] 4 [1 2] [0 2 0 0->16] [0 0 0 0->0]
f 15.060348965 _18_ RTR  --- 2 DSR 120 [0 ffffffff 13 800] ------- [0:255 16:255 32 0] 5 [1 2] [0 2 0 0->16] [0 0 0 0->0]
f 15.060391243 _9_ RTR  --- 2 DSR 68 [0 ffffffff 3 800] ------- [0:255 16:255 32 0] 3 [1 2] [0 2 0 0->16] [0 0 0 0->0]
f 15.060470256 _10_ RTR  --- 2 DSR 68 [0 ffffffff 6 800] ------- [0:255 16:255 32 0] 3 [1 2] [0 2 0 0->16] [0 0 0 0->0]
f 15.060655206 _1_ RTR  --- 2 DSR 48 [0 ffffffff 0 800] ------- [0:255 16:255 32 0] 2 [1 2] [0 2 0 0->16] [0 0 0 0->0]
f 15.060813834 _4_ RTR  --- 2 DSR 48 [0 ffffffff 0 800] ------- [0:255 16:255 32 0] 2 [1 2] [0 2 0 0->16] [0 0 0 0->0]
r 15.061511577 _6_ RTR  --- 2 DSR 68 [0 ffffffff 9 800] ------- [0:255 16:255 32 0] 3 [1 2] [0 2 0 0->16] [0 0 0 0->0]
r 15.061511577 _12_ RTR  --- 2 DSR 68 [0 ffffffff 9 800] ------- [0:255 16:255 32 0] 3 [1 2] [0 2 0 0->16] [0 0 0 0->0]
r 15.061511577 _23_ RTR  --- 2 DSR 68 [0 ffffffff 9 800] ------- [0:255 16:255 32 0] 3 [1 2] [0 2 0 0->16] [0 0 0 0->0]
r 15.061511715 _21_ RTR  --- 2 DSR 68 [0 ffffffff 9 800] ------- [0:255 16:255 32 0] 3 [1 2] [0 2 0 0->16] [0 0 0 0->0]
r 15.061511715 _25_ RTR  --- 2 DSR 68 [0 ffffffff 9 800] ------- [0:255 16:255 32 0] 3 [1 2] [0 2 0 0->16] [0 0 0 0->0]
r 15.061511910 _3_ RTR  --- 2 DSR 68 [0 ffffffff 9 800] ------- [0:255 16:255 32 0] 3 [1 2] [0 2 0 0->16] [0 0 0 0->0]
r 15.061511910 _15_ RTR  --- 2 DSR 68 [0 ffffffff 9 800] ------- [0:255 16:255 32 0] 3 [1 2] [0 2 0 0->16] [0 0 0 0->0]
r 15.061511910 _10_ RTR  --- 2 DSR 68 [0 ffffffff 9 800] ------- [0:255 16:255 32 0] 3 [1 2] [0 2 0 0->16] [0 0 0 0->0]
r 15.061511989 _19_ RTR  --- 2 DSR 68 [0 ffffffff 9 800] ------- [0:255 16:255 32 0] 3 [1 2] [0 2 0 0->16] [0 0 0 0->0]
r 15.061511989 _27_ RTR  --- 2 DSR 68 [0 ffffffff 9 800] ------- [0:255 16:255 32 0] 3 [1 2] [0 2 0 0->16] [0 0 0 0->0]
r 15.061511989 _7_ RTR  --- 2 DSR 68 [0 ffffffff 9 800] ------- [0:255 16:255 32 0] 3 [1 2] [0 2 0 0->16] [0 0 0 0->0]
r 15.061511989 _13_ RTR  --- 2 DSR 68 [0 ffffffff 9 800] ------- [0:255 16:255 32 0] 3 [1 2] [0 2 0 0->16] [0 0 0 0->0]
f 15.061916681 _15_ RTR  --- 2 DSR 92 [0 ffffffff 17 800] ------- [0:255 16:255 32 0] 4 [1 2] [0 2 0 0->16] [0 0 0 0->0]
s 15.062140538 _16_ RTR  --- 4 DSR 60 [0 0 0 0] ------- [16:255 0:255 254 12] 4 [0 2] [1 2 4 0->16] [0 0 0 0->0]
s 15.062695905 _16_ RTR  --- 3 DSR 60 [0 0 0 0] ------- [16:255 0:255 254 23] 4 [0 2] [1 2 4 0->16] [0 0 0 0->0]
r 15.062734322 _10_ RTR  --- 2 DSR 92 [0 ffffffff d 800] ------- [0:255 16:255 32 0] 4 [1 2] [0 2 0 0->16] [0 0 0 0->0]
r 15.062734322 _21_ RTR  --- 2 DSR 92 [0 ffffffff d 800] ------- [0:255 16:255 32 0] 4 [1 2] [0 2 0 0->16] [0 0 0 0->0]
r 15.062734322 _16_ RTR  --- 2 DSR 92 [0 ffffffff d 800] ------- [0:255 16:255 32 0] 4 [1 2] [0 2 0 0->16] [0 0 0 0->0]
r 15.062734322 _20_ RTR  --- 2 DSR 92 [0 ffffffff d 800] ------- [0:255 16:255 32 0] 4 [1 2] [0 2 0 0->16] [0 0 0 0->0]
r 15.062734460 _23_ RTR  --- 2 DSR 92 [0 ffffffff d 800] ------- [0:255 16:255 32 0] 4 [1 2] [0 2 0 0->16] [0 0 0 0->0]
r 15.062734460 _19_ RTR  --- 2 DSR 92 [0 ffffffff d 800] ------- [0:255 16:255 32 0] 4 [1 2] [0 2 0 0->16] [0 0 0 0->0]
r 15.062734460 _18_ RTR  --- 2 DSR 92 [0 ffffffff d 800] ------- [0:255 16:255 32 0] 4 [1 2] [0 2 0 0->16] [0 0 0 0->0]
r 15.062734460 _22_ RTR  --- 2 DSR 92 [0 ffffffff d 800] ------- [0:255 16:255 32 0] 4 [1 2] [0 2 0 0->16] [0 0 0 0->0]
r 15.062734655 _7_ RTR  --- 2 DSR 92 [0 ffffffff d 800] ------- [0:255 16:255 32 0] 4 [1 2] [0 2 0 0->16] [0 0 0 0->0]
r 15.062734655 _12_ RTR  --- 2 DSR 92 [0 ffffffff d 800] ------- [0:255 16:255 32 0] 4 [1 2] [0 2 0 0->16] [0 0 0 0->0]
r 15.062734655 _14_ RTR  --- 2 DSR 92 [0 ffffffff d 800] ------- [0:255 16:255 32 0] 4 [1 2] [0 2 0 0->16] [0 0 0 0->0]
r 15.062734734 _25_ RTR  --- 2 DSR 92 [0 ffffffff d 800] ------- [0:255 16:255 32 0] 4 [1 2] [0 2 0 0->16] [0 0 0 0->0]
r 15.062734734 _15_ RTR  --- 2 DSR 92 [0 ffffffff d 800] ------- [0:255 16:255 32 0] 4 [1 2] [0 2 0 0->16] [0 0 0 0->0]
r 15.062734734 _9_ RTR  --- 2 DSR 92 [0 ffffffff d 800] ------- [0:255 16:255 32 0] 4 [1 2] [0 2 0 0->16] [0 0 0 0->0]
r 15.062734734 _24_ RTR  --- 2 DSR 92 [0 ffffffff d 800] ------- [0:255 16:255 32 0] 4 [1 2] [0 2 0 0->16] [0 0 0 0->0]
r 15.062734734 _11_ RTR  --- 2 DSR 92 [0 ffffffff d 800] ------- [0:255 16:255 32 0] 4 [1 2] [0 2 0 0->16] [0 0 0 0->0]
r 15.062734734 _17_ RTR  --- 2 DSR 92 [0 ffffffff d 800] ------- [0:255 16:255 32 0] 4 [1 2] [0 2 0 0->16] [0 0 0 0->0]
f 15.062797201 _11_ RTR  --- 2 DSR 120 [0 ffffffff d 800] ------- [0:255 16:255 32 0] 5 [1 2] [0 2 0 0->16] [0 0 0 0->0]
r 15.063957067 _12_ RTR  --- 2 DSR 92 [0 ffffffff f 800] ------- [0:255 16:255 32 0] 4 [1 2] [0 2 0 0->16] [0 0 0 0->0]
r 15.063957067 _19_ RTR  --- 2 DSR 92 [0 ffffffff f 800] ------- [0:255 16:255 32 0] 4 [1 2] [0 2 0 0->16] [0 0 0 0->0]
r 15.063957205 _21_ RTR  --- 2 DSR 92 [0 ffffffff f 800] ------- [0:255 16:255 32 0] 4 [1 2] [0 2 0 0->16] [0 0 0 0->0]
r 15.063957401 _9_ RTR  --- 2 DSR 92 [0 ffffffff f 800] ------- [0:255 16:255 32 0] 4 [1 2] [0 2 0 0->16] [0 0 0 0->0]
r 15.063957401 _16_ RTR  --- 2 DSR 92 [0 ffffffff f 800] ------- [0:255 16:255 32 0] 4 [1 2] [0 2 0 0->16] [0 0 0 0->0]
r 15.063957479 _23_ RTR  --- 2 DSR 92 [0 ffffffff f 800] ------- [0:255 16:255 32 0] 4 [1 2] [0 2 0 0->16] [0 0 0 0->0]
r 15.063957479 _13_ RTR  --- 2 DSR 92 [0 ffffffff f 800] ------- [0:255 16:255 32 0] 4 [1 2] [0 2 0 0->16] [0 0 0 0->0]
r 15.065067539 _19_ RTR  --- 2 DSR 68 [0 ffffffff 15 800] ------- [0:255 16:255 32 0] 3 [1 2] [0 2 0 0->16] [0 0 0 0->0]
r 15.065067539 _12_ RTR  --- 2 DSR 68 [0 ffffffff 15 800] ------- [0:255 16:255 32 0] 3 [1 2] [0 2 0 0->16] [0 0 0 0->0]
r 15.065067539 _23_ RTR  --- 2 DSR 68 [0 ffffffff 15 800] ------- [0:255 16:255 32 0] 3 [1 2] [0 2 0 0->16] [0 0 0 0->0]
r 15.065067539 _13_ RTR  --- 2 DSR 68 [0 ffffffff 15 800] ------- [0:255 16:255 32 0] 3 [1 2] [0 2 0 0->16] [0 0 0 0->0]
r 15.065067677 _15_ RTR  --- 2 DSR 68 [0 ffffffff 15 800] ------- [0:255 16:255 32 0] 3 [1 2] [0 2 0 0->16] [0 0 0 0->0]
r 15.065067677 _9_ RTR  --- 2 DSR 68 [0 ffffffff 15 800] ------- [0:255 16:255 32 0] 3 [1 2] [0 2 0 0->16] [0 0 0 0->0]
r 15.065067677 _10_ RTR  --- 2 DSR 68 [0 ffffffff 15 800] ------- [0:255 16:255 32 0] 3 [1 2] [0 2 0 0->16] [0 0 0 0->0]
r 15.065067677 _16_ RTR  --- 2 DSR 68 [0 ffffffff 15 800] ------- [0:255 16:255 32 0] 3 [1 2] [0 2 0 0->16] [0 0 0 0->0]
r 15.065067872 _25_ RTR  --- 2 DSR 68 [0 ffffffff 15 800] ------- [0:255 16:255 32 0] 3 [1 2] [0 2 0 0->16] [0 0 0 0->0]
r 15.065067872 _20_ RTR  --- 2 DSR 68 [0 ffffffff 15 800] ------- [0:255 16:255 32 0] 3 [1 2] [0 2 0 0->16] [0 0 0 0->0]
r 15.065067951 _6_ RTR  --- 2 DSR 68 [0 ffffffff 15 800] ------- [0:255 16:255 32 0] 3 [1 2] [0 2 0 0->16] [0 0 0 0->0]
r 15.065067951 _7_ RTR  --- 2 DSR 68 [0 ffffffff 15 800] ------- [0:255 16:255 32 0] 3 [1 2] [0 2 0 0->16] [0 0 0 0->0]
r 15.065067951 _18_ RTR  --- 2 DSR 68 [0 ffffffff 15 800] ------- [0:255 16:255 32 0] 3 [1 2] [0 2 0 0->16] [0 0 0 0->0]
r 15.065067951 _22_ RTR  --- 2 DSR 68 [0 ffffffff 15 800] ------- [0:255 16:255 32 0] 3 [1 2] [0 2 0 0->16] [0 0 0 0->0]
f 15.065748986 _20_ RTR  --- 2 DSR 92 [0 ffffffff 17 800] ------- [0:255 16:255 32 0] 4 [1 2] [0 2 0 0->16] [0 0 0 0->0]
s 15.066116686 _16_ RTR  --- 7 DSR 68 [0 0 0 0] ------- [16:255 0:255 254 15] 5 [0 2] [1 2 5 0->16] [0 0 0 0->0]
r 15.066158205 _23_ RTR  --- 2 DSR 48 [0 ffffffff 19 800] ------- [0:255 16:255 32 0] 2 [1 2] [0 2 0 0->16] [0 0 0 0->0]
r 15.066158205 _6_ RTR  --- 2 DSR 48 [0 ffffffff 19 800] ------- [0:255 16:255 32 0] 2 [1 2] [0 2 0 0->16] [0 0 0 0->0]
r 15.066158205 _27_ RTR  --- 2 DSR 48 [0 ffffffff 19 800] ------- [0:255 16:255 32 0] 2 [1 2] [0 2 0 0->16] [0 0 0 0->0]
r 15.066158205 _7_ RTR  --- 2 DSR 48 [0 ffffffff 19 800] ------- [0:255 16:255 32 0] 2 [1 2] [0 2 0 0->16] [0 0 0 0->0]
r 15.066158343 _9_ RTR  --- 2 DSR 48 [0 ffffffff 19 800] ------- [0:255 16:255 32 0] 2 [1 2] [0 2 0 0->16] [0 0 0 0->0]
r 15.066158343 _3_ RTR  --- 2 DSR 48 [0 ffffffff 19 800] ------- [0:255 16:255 32 0] 2 [1 2] [0 2 0 0->16] [0 0 0 0->0]
r 15.066158343 _4_ RTR  --- 2 DSR 48 [0 ffffffff 19 800] ------- [0:255 16:255 32 0] 2 [1 2] [0 2 0 0->16] [0 0 0 0->0]
r 15.066158343 _10_ RTR  --- 2 DSR 48 [0 ffffffff 19 800] ------- [0:255 16:255 32 0] 2 [1 2] [0 2 0 0->16] [0 0 0 0->0]
r 15.066158539 _21_ RTR  --- 2 DSR 48 [0 ffffffff 19 800] ------- [0:255 16:255 32 0] 2 [1 2] [0 2 0 0->16] [0 0 0 0->0]
r 15.066158539 _24_ RTR  --- 2 DSR 48 [0 ffffffff 19 800] ------- [0:255 16:255 32 0] 2 [1 2] [0 2 0 0->16] [0 0 0 0->0]
r 15.066158617 _12_ RTR  --- 2 DSR 48 [0 ffffffff 19 800] ------- [0:255 16:255 32 0] 2 [1 2] [0 2 0 0->16] [0 0 0 0->0]
r 15.066158617 _0_ RTR  --- 2 DSR 48 [0 ffffffff 19 800] ------- [0:255 16:255 32 0] 2 [1 2] [0 2 0 0->16] [0 0 0 0->0]
r 15.066158617 _1_ RTR  --- 2 DSR 48 [0 ffffffff 19 800] ------- [0:255 16:255 32 0] 2 [1 2] [0 2 0 0->16] [0 0 0 0->0]
r 15.066158617 _13_ RTR  --- 2 DSR 48 [0 ffffffff 19 800] ------- [0:255 16:255 32 0] 2 [1 2] [0 2 0 0->16] [0 0 0 0->0]
r 15.066158617 _22_ RTR  --- 2 DSR 48 [0 ffffffff 19 800] ------- [0:255 16:255 32 0] 2 [1 2] [0 2 0 0->16] [0 0 0 0->0]
r 15.066158617 _26_ RTR  --- 2 DSR 48 [0 ffffffff 19 800] ------- [0:255 16:255 32 0] 2 [1 2] [0 2 0 0->16] [0 0 0 0->0]
s 15.066498737 _16_ RTR  --- 5 DSR 68 [0 0 0 0] ------- [16:255 0:255 254 19] 5 [0 2] [1 2 5 0->16] [0 0 0 0->0]
s 15.066937483 _16_ RTR  --- 6 DSR 68 [0 0 0 0] ------- [16:255 0:255 254 13] 5 [0 2] [1 2 5 0->16] [0 0 0 0->0]
r 15.067348539 _4_ RTR  --- 2 DSR 68 [0 ffffffff 7 800] ------- [0:255 16:255 32 0] 3 [1 2] [0 2 0 0->16] [0 0 0 0->0]
r 15.067348539 _25_ RTR  --- 2 DSR 68 [0 ffffffff 7 800] ------- [0:255 16:255 32 0] 3 [1 2] [0 2 0 0->16] [0 0 0 0->0]
r 15.067348539 _10_ RTR  --- 2 DSR 68 [0 ffffffff 7 800] ------- [0:255 16:255 32 0] 3 [1 2] [0 2 0 0->16] [0 0 0 0->0]
r 15.067348539 _24_ RTR  --- 2 DSR 68 [0 ffffffff 7 800] ------- [0:255 16:255 32 0] 3 [1 2] [0 2 0 0->16] [0 0 0 0->0]
r 15.067348677 _27_ RTR  --- 2 DSR 68 [0 ffffffff 7 800] ------- [0:255 16:255 32 0] 3 [1 2] [0 2 0 0->16] [0 0 0 0->0]
r 15.067348677 _23_ RTR  --- 2 DSR 68 [0 ffffffff 7 800] ------- [0:255 16:255 32 0] 3 [1 2] [0 2 0 0->16] [0 0 0 0->0]
r 15.067348677 _22_ RTR  --- 2 DSR 68 [0 ffffffff 7 800] ------- [0:255 16:255 32 0] 3 [1 2] [0 2 0 0->16] [0 0 0 0->0]
r 15.067348677 _26_ RTR  --- 2 DSR 68 [0 ffffffff 7 800] ------- [0:255 16:255 32 0] 3 [1 2] [0 2 0 0->16] [0 0 0 0->0]
r 15.067348872 _1_ RTR  --- 2 DSR 68 [0 ffffffff 7 800] ------- [0:255 16:255 32 0] 3 [1 2] [0 2 0 0->16] [0 0 0 0->0]
r 15.067348872 _6_ RTR  --- 2 DSR 68 [0 ffffffff 7 800] ------- [0:255 16:255 32 0] 3 [1 2] [0 2 0 0->16] [0 0 0 0->0]
r 15.067348872 _13_ RTR  --- 2 DSR 68 [0 ffffffff 7 800] ------- [0:255 16:255 32 0] 3 [1 2] [0 2 0 0->16] [0 0 0 0->0]
r 15.067348872 _8_ RTR  --- 2 DSR 68 [0 ffffffff 7 800] ------- [0:255 16:255 32 0] 3 [1 2] [0 2 0 0->16] [0 0 0 0->0]
r 15.067348951 _21_ RTR  --- 2 DSR 68 [0 ffffffff 7 800] ------- [0:255 16:255 32 0] 3 [1 2] [0 2 0 0->16] [0 0 0 0->0]
r 15.067348951 _9_ RTR  --- 2 DSR 68 [0 ffffffff 7 800] ------- [0:255 16:255 32 0] 3 [1 2] [0 2 0 0->16] [0 0 0 0->0]
r 15.067348951 _3_ RTR  --- 2 DSR 68 [0 ffffffff 7 800] ------- [0:255 16:255 32 0] 3 [1 2] [0 2 0 0->16] [0 0 0 0->0]
r 15.067348951 _20_ RTR  --- 2 DSR 68 [0 ffffffff 7 800] ------- [0:255 16:255 32 0] 3 [1 2] [0 2 0 0->16] [0 0 0 0->0]
r 15.067348951 _28_ RTR  --- 2 DSR 68 [0 ffffffff 7 800] ------- [0:255 16:255 32 0] 3 [1 2] [0 2 0 0->16] [0 0 0 0->0]
r 15.067348951 _5_ RTR  --- 2 DSR 68 [0 ffffffff 7 800] ------- [0:255 16:255 32 0] 3 [1 2] [0 2 0 0->16] [0 0 0 0->0]
r 15.067348951 _11_ RTR  --- 2 DSR 68 [0 ffffffff 7 800] ------- [0:255 16:255 32 0] 3 [1 2] [0 2 0 0->16] [0 0 0 0->0]
s 15.067440531 _16_ RTR  --- 8 DSR 60 [0 0 0 0] ------- [16:255 0:255 254 21] 4 [0 2] [1 2 4 0->16] [0 0 0 0->0]
f 15.067470932 _26_ RTR  --- 2 DSR 68 [0 ffffffff 19 800] ------- [0:255 16:255 32 0] 3 [1 2] [0 2 0 0->16] [0 0 0 0->0]
f 15.067959884 _17_ RTR  --- 2 DSR 120 [0 ffffffff d 800] ------- [0:255 16:255 32 0] 5 [1 2] [0 2 0 0->16] [0 0 0 0->0]
r 15.068259010 _25_ RTR  --- 2 DSR 48 [0 ffffffff 1b 800] ------- [0:255 16:255 32 0] 2 [1 2] [0 2 0 0->16] [0 0 0 0->0]
r 15.068259010 _3_ RTR  --- 2 DSR 48 [0 ffffffff 1b 800] ------- [0:255 16:255 32 0] 2 [1 2] [0 2 0 0->16] [0 0 0 0->0]
r 15.068259010 _4_ RTR  --- 2 DSR 48 [0 ffffffff 1b 800] ------- [0:255 16:255 32 0] 2 [1 2] [0 2 0 0->16] [0 0 0 0->0]
r 15.068259148 _6_ RTR  --- 2 DSR 48 [0 ffffffff 1b 800] ------- [0:255 16:255 32 0] 2 [1 2] [0 2 0 0->16] [0 0 0 0->0]
r 15.068259148 _0_ RTR  --- 2 DSR 48 [0 ffffffff 1b 800] ------- [0:255 16:255 32 0] 2 [1 2] [0 2 0 0->16] [0 0 0 0->0]
r 15.068259148 _1_ RTR  --- 2 DSR 48 [0 ffffffff 1b 800] ------- [0:255 16:255 32 0] 2 [1 2] [0 2 0 0->16] [0 0 0 0->0]
r 15.068259148 _7_ RTR  --- 2 DSR 48 [0 ffffffff 1b 800] ------- [0:255 16:255 32 0] 2 [1 2] [0 2 0 0->16] [0 0 0 0->0]
r 15.068259343 _23_ RTR  --- 2 DSR 48 [0 ffffffff 1b 800] ------- [0:255 16:255 32 0] 2 [1 2] [0 2 0 0->16] [0 0 0 0->0]
r 15.068259343 _26_ RTR  --- 2 DSR 48 [0 ffffffff 1b 800] ------- [0:255 16:255 32 0] 2 [1 2] [0 2 0 0->16] [0 0 0 0->0]
r 15.068259422 _9_ RTR  --- 2 DSR 48 [0 ffffffff 1b 800] ------- [0:255 16:255 32 0] 2 [1 2] [0 2 0 0->16] [0 0 0 0->0]
r 15.068259422 _10_ RTR  --- 2 DSR 48 [0 ffffffff 1b 800] ------- [0:255 16:255 32 0] 2 [1 2] [0 2 0 0->16] [0 0 0 0->0]
r 15.068259422 _24_ RTR  --- 2 DSR 48 [0 ffffffff 1b 800] ------- [0:255 16:255 32 0] 2 [1 2] [0 2 0 0->16] [0 0 0 0->0]
r 15.068259422 _28_ RTR  --- 2 DSR 48 [0 ffffffff 1b 800] ------- [0:255 16:255 32 0] 2 [1 2] [0 2 0 0->16] [0 0 0 0->0]
r 15.069269677 _24_ RTR  --- 2 DSR 68 [0 ffffffff 1a 800] ------- [0:255 16:255 32 0] 3 [1 2] [0 2 0 0->16] [0 0 0 0->0]
r 15.069269677 _4_ RTR  --- 2 DSR 68 [0 ffffffff 1a 800] ------- [0:255 16:255 32 0] 3 [1 2] [0 2 0 0->16] [0 0 0 0->0]
r 15.069269677 _28_ RTR  --- 2 DSR 68 [0 ffffffff 1a 800] ------- [0:255 16:255 32 0] 3 [1 2] [0 2 0 0->16] [0 0 0 0->0]
r 15.069269677 _5_ RTR  --- 2 DSR 68 [0 ffffffff 1a 800] ------- [0:255 16:255 32 0] 3 [1 2] [0 2 0 0->16] [0 0 0 0->0]
r 15.069269815 _7_ RTR  --- 2 DSR 68 [0 ffffffff 1a 800] ------- [0:255 16:255 32 0] 3 [1 2] [0 2 0 0->16] [0 0 0 0->0]
r 15.069269815 _1_ RTR  --- 2 DSR 68 [0 ffffffff 1a 800] ------- [0:255 16:255 32 0] 3 [1 2] [0 2 0 0->16] [0 0 0 0->0]
r 15.069269815 _2_ RTR  --- 2 DSR 68 [0 ffffffff 1a 800] ------- [0:255 16:255 32 0] 3 [1 2] [0 2 0 0->16] [0 0 0 0->0]
r 15.069269815 _8_ RTR  --- 2 DSR 68 [0 ffffffff 1a 800] ------- [0:255 16:255 32 0] 3 [1 2] [0 2 0 0->16] [0 0 0 0->0]
r 15.069270010 _22_ RTR  --- 2 DSR 68 [0 ffffffff 1a 800] ------- [0:255 16:255 32 0] 3 [1 2] [0 2 0 0->16] [0 0 0 0->0]
r 15.069270010 _27_ RTR  --- 2 DSR 68 [0 ffffffff 1a 800] ------- [0:255 16:255 32 0] 3 [1 2] [0 2 0 0->16] [0 0 0 0->0]
r 15.069270089 _10_ RTR  --- 2 DSR 68 [0 ffffffff 1a 800] ------- [0:255 16:255 32 0] 3 [1 2] [0 2 0 0->16] [0 0 0 0->0]
r 15.069270089 _25_ RTR  --- 2 DSR 68 [0 ffffffff 1a 800] ------- [0:255 16:255 32 0] 3 [1 2] [0 2 0 0->16] [0 0 0 0->0]
r 15.069270089 _11_ RTR  --- 2 DSR 68 [0 ffffffff 1a 800] ------- [0:255 16:255 32 0] 3 [1 2] [0 2 0 0->16] [0 0 0 0->0]
f 15.069842410 _5_ RTR  --- 2 DSR 92 [0 ffffffff 7 800] ------- [0:255 16:255 32 0] 4 [1 2] [0 2 0 0->16] [0 0 0 0->0]
r 15.070512343 _20_ RTR  --- 2 DSR 92 [0 ffffffff 16 800] ------- [0:255 16:255 32 0] 4 [1 2] [0 2 0 0->16] [0 0 0 0->0]
r 15.070512343 _10_ RTR  --- 2 DSR 92 [0 ffffffff 16 800] ------- [0:255 16:255 32 0] 4 [1 2] [0 2 0 0->16] [0 0 0 0->0]
r 15.070512343 _24_ RTR  --- 2 DSR 92 [0 ffffffff 16 800] ------- [0:255 16:255 32 0] 4 [1 2] [0 2 0 0->16] [0 0 0 0->0]
r 15.070512343 _11_ RTR  --- 2 DSR 92 [0 ffffffff 16 800] ------- [0:255 16:255 32 0] 4 [1 2] [0 2 0 0->16] [0 0 0 0->0]
r 15.070512481 _13_ RTR  --- 2 DSR 92 [0 ffffffff 16 800] ------- [0:255 16:255 32 0] 4 [1 2] [0 2 0 0->16] [0 0 0 0->0]
r 15.070512481 _7_ RTR  --- 2 DSR 92 [0 ffffffff 16 800] ------- [0:255 16:255 32 0] 4 [1 2] [0 2 0 0->16] [0 0 0 0->0]
r 15.070512481 _8_ RTR  --- 2 DSR 92 [0 ffffffff 16 800] ------- [0:255 16:255 32 0] 4 [1 2] [0 2 0 0->16] [0 0 0 0->0]
r 15.070512481 _14_ RTR  --- 2 DSR 92 [0 ffffffff 16 800] ------- [0:255 16:255 32 0] 4 [1 2] [0 2 0 0->16] [0 0 0 0->0]
r 15.070512677 _18_ RTR  --- 2 DSR 92 [0 ffffffff 16 800] ------- [0:255 16:255 32 0] 4 [1 2] [0 2 0 0->16] [0 0 0 0->0]
r 15.070512677 _23_ RTR  --- 2 DSR 92 [0 ffffffff 16 800] ------- [0:255 16:255 32 0] 4 [1 2] [0 2 0 0->16] [0 0 0 0->0]
r 15.070512677 _26_ RTR  --- 2 DSR 92 [0 ffffffff 16 800] ------- [0:255 16:255 32 0] 4 [1 2] [0 2 0 0->16] [0 0 0 0->0]
r 15.070512755 _16_ RTR  --- 2 DSR 92 [0 ffffffff 16 800] ------- [0:255 16:255 32 0] 4 [1 2] [0 2 0 0->16] [0 0 0 0->0]
r 15.070512755 _4_ RTR  --- 2 DSR 92 [0 ffffffff 16 800] ------- [0:255 16:255 32 0] 4 [1 2] [0 2 0 0->16] [0 0 0 0->0]
r 15.070512755 _25_ RTR  --- 2 DSR 92 [0 ffffffff 16 800] ------- [0:255 16:255 32 0] 4 [1 2] [0 2 0 0->16] [0 0 0 0->0]
r 15.070512755 _21_ RTR  --- 2 DSR 92 [0 ffffffff 16 800] ------- [0:255 16:255 32 0] 4 [1 2] [0 2 0 0->16] [0 0 0 0->0]
r 15.070512755 _5_ RTR  --- 2 DSR 92 [0 ffffffff 16 800] ------- [0:255 16:255 32 0] 4 [1 2] [0 2 0 0->16] [0 0 0 0->0]
r 15.070512755 _17_ RTR  --- 2 DSR 92 [0 ffffffff 16 800] ------- [0:255 16:255 32 0] 4 [1 2] [0 2 0 0->16] [0 0 0 0->0]
f 15.070869337 _14_ RTR  --- 2 DSR 120 [0 ffffffff d 800] ------- [0:255 16:255 32 0] 5 [1 2] [0 2 0 0->16] [0 0 0 0->0]
s 15.071313367 _16_ RTR  --- 9 DSR 68 [0 0 0 0] ------- [16:255 0:255 254 22] 5 [0 2] [1 2 5 0->16] [0 0 0 0->0]
r 15.071542677 _23_ RTR  --- 2 DSR 68 [0 ffffffff a 800] ------- [0:255 16:255 32 0] 3 [1 2] [0 2 0 0->16] [0 0 0 0->0]
r 15.071542677 _13_ RTR  --- 2 DSR 68 [0 ffffffff a 800] ------- [0:255 16:255 32 0] 3 [1 2] [0 2 0 0->16] [0 0 0 0->0]
r 15.071542815 _21_ RTR  --- 2 DSR 68 [0 ffffffff a 800] ------- [0:255 16:255 32 0] 3 [1 2] [0 2 0 0->16] [0 0 0 0->0]
r 15.071734677 _26_ RTR  --- 2 DSR 92 [0 ffffffff 18 800] ------- [0:255 16:255 32 0] 4 [1 2] [0 2 0 0->16] [0 0 0 0->0]
r 15.071734677 _8_ RTR  --- 2 DSR 92 [0 ffffffff 18 800] ------- [0:255 16:255 32 0] 4 [1 2] [0 2 0 0->16] [0 0 0 0->0]
r 15.071734815 _10_ RTR  --- 2 DSR 92 [0 ffffffff 18 800] ------- [0:255 16:255 32 0] 4 [1 2] [0 2 0 0->16] [0 0 0 0->0]
r 15.071734815 _5_ RTR  --- 2 DSR 92 [0 ffffffff 18 800] ------- [0:255 16:255 32 0] 4 [1 2] [0 2 0 0->16] [0 0 0 0->0]
f 15.072674319 _8_ RTR  --- 2 DSR 92 [0 ffffffff 7 800] ------- [0:255 16:255 32 0] 4 [1 2] [0 2 0 0->16] [0 0 0 0->0]
r 15.073169620 _2_ RTR  --- 2 DSR 92 [0 ffffffff 5 800] ------- [0:255 16:255 32 0] 4 [1 2] [0 2 0 0->16] [0 0 0 0->0]
r 15.073169620 _26_ RTR  --- 2 DSR 92 [0 ffffffff 5 800] ------- [0:255 16:255 32 0] 4 [1 2] [0 2 0 0->16] [0 0 0 0->0]
r 15.073169620 _8_ RTR  --- 2 DSR 92 [0 ffffffff 5 800] ------- [0:255 16:255 32 0] 4 [1 2] [0 2 0 0->16] [0 0 0 0->0]
r 15.073169758 _28_ RTR  --- 2 DSR 92 [0 ffffffff 5 800] ------- [0:255 16:255 32 0] 4 [1 2] [0 2 0 0->16] [0 0 0 0->0]
r 15.073169758 _24_ RTR  --- 2 DSR 92 [0 ffffffff 5 800] ------- [0:255 16:255 32 0] 4 [1 2] [0 2 0 0->16] [0 0 0 0->0]
r 15.073169953 _4_ RTR  --- 2 DSR 92 [0 ffffffff 5 800] ------- [0:255 16:255 32 0] 4 [1 2] [0 2 0 0->16] [0 0 0 0->0]
r 15.073169953 _11_ RTR  --- 2 DSR 92 [0 ffffffff 5 800] ------- [0:255 16:255 32 0] 4 [1 2] [0 2 0 0->16] [0 0 0 0->0]
r 15.073170032 _22_ RTR  --- 2 DSR 92 [0 ffffffff 5 800] ------- [0:255 16:255 32 0] 4 [1 2] [0 2 0 0->16] [0 0 0 0->0]
r 15.073170032 _7_ RTR  --- 2 DSR 92 [0 ffffffff 5 800] ------- [0:255 16:255 32 0] 4 [1 2] [0 2 0 0->16] [0 0 0 0->0]