n -t * -s 0  -x 100 -y 100 -Z 0 -z 30  -v circle -c black
n -t * -s 1  -x 300 -y 100 -Z 0 -z 30  -v circle -c black
n -t * -s 2  -x 500 -y 100 -Z 0 -z 30  -v circle -c black
n -t * -s 3  -x 200 -y 200 -Z 0 -z 30  -v circle -c black
n -t * -s 4  -x 400 -y 200 -Z 0 -z 30  -v circle -c black
n -t * -s 5  -x 300 -y 300 -Z 0 -z 30  -v circle -c black
n -t * -s 6  -x 200 -y 400 -Z 0 -z 30  -v circle -c black
n -t * -s 7  -x 400 -y 400 -Z 0 -z 30  -v circle -c black
n -t * -s 8  -x 100 -y 500 -Z 0 -z 30  -v circle -c black
n -t * -s 9  -x 300 -y 500 -Z 0 -z 30  -v circle -c black
n -t * -s 10  -x 500 -y 500 -Z 0 -z 30  -v circle -c black
V -t * -v 1.0a5 -a 0
W -t * -x 500 -y 500
A -t * -n 1 -p 0 -o 0xffffffff -c 31 -a 1
A -t * -h 1 -m 2147483647 -s 0
+ -t 15.000000000 -s 0 -d -1 -p cbr -e 512 -c 2 -a 0 -i 0 -k AGT 
- -t 15.000000000 -s 0 -d -1 -p cbr -e 512 -c 2 -a 0 -i 0 -k AGT
h -t 15.000000000 -s 0 -d -1 -p cbr -e 512 -c 2 -a 0 -i 0 -k AGT
+ -t 15.006049459 -s 0 -d -1 -p DSR -e 32 -c 2 -a 0 -i 1 -k RTR 
- -t 15.006049459 -s 0 -d -1 -p DSR -e 32 -c 2 -a 0 -i 1 -k RTR
h -t 15.006049459 -s 0 -d -1 -p DSR -e 32 -c 2 -a 0 -i 1 -k RTR
+ -t 15.047244065 -s 0 -d -1 -p DSR -e 32 -c 2 -a 0 -i 3 -k RTR 
- -t 15.047244065 -s 0 -d -1 -p DSR -e 32 -c 2 -a 0 -i 3 -k RTR
h -t 15.047244065 -s 0 -d -1 -p DSR -e 32 -c 2 -a 0 -i 3 -k RTR
+ -t 15.051654155 -s 1 -d -1 -p DSR -e 48 -c 2 -a 0 -i 3 -k RTR 
- -t 15.051654155 -s 1 -d -1 -p DSR -e 48 -c 2 -a 0 -i 3 -k RTR
h -t 15.051654155 -s 1 -d -1 -p DSR -e 48 -c 2 -a 0 -i 3 -k RTR
+ -t 15.053775503 -s 3 -d -1 -p DSR -e 48 -c 2 -a 0 -i 3 -k RTR 
- -t 15.053775503 -s 3 -d -1 -p DSR -e 48 -c 2 -a 0 -i 3 -k RTR
h -t 15.053775503 -s 3 -d -1 -p DSR -e 48 -c 2 -a 0 -i 3 -k RTR
+ -t 15.054266157 -s 5 -d -1 -p DSR -e 68 -c 2 -a 0 -i 3 -k RTR 
- -t 15.054266157 -s 5 -d -1 -p DSR -e 68 -c 2 -a 0 -i 3 -k RTR
h -t 15.054266157 -s 5 -d -1 -p DSR -e 68 -c 2 -a 0 -i 3 -k RTR
+ -t 15.054683694 -s 2 -d -1 -p DSR -e 68 -c 2 -a 0 -i 3 -k RTR 
- -t 15.054683694 -s 2 -d -1 -p DSR -e 68 -c 2 -a 0 -i 3 -k RTR
h -t 15.054683694 -s 2 -d -1 -p DSR -e 68 -c 2 -a 0 -i 3 -k RTR
+ -t 15.056841652 -s 7 -d -1 -p DSR -e 92 -c 2 -a 0 -i 3 -k RTR 
- -t 15.056841652 -s 7 -d -1 -p DSR -e 92 -c 2 -a 0 -i 3 -k RTR
h -t 15.056841652 -s 7 -d -1 -p DSR -e 92 -c 2 -a 0 -i 3 -k RTR
+ -t 15.057160028 -s 6 -d -1 -p DSR -e 68 -c 2 -a 0 -i 3 -k RTR 
- -t 15.057160028 -s 6 -d -1 -p DSR -e 68 -c 2 -a 0 -i 3 -k RTR
h -t 15.057160028 -s 6 -d -1 -p DSR -e 68 -c 2 -a 0 -i 3 -k RTR
+ -t 15.057841485 -s 4 -d -1 -p DSR -e 68 -c 2 -a 0 -i 3 -k RTR 
- -t 15.057841485 -s 4 -d -1 -p DSR -e 68 -c 2 -a 0 -i 3 -k RTR
h -t 15.057841485 -s 4 -d -1 -p DSR -e 68 -c 2 -a 0 -i 3 -k RTR
+ -t 15.062887858 -s 9 -d 5 -p DSR -e 60 -c 2 -a 0 -i 4 -k RTR 
- -t 15.062887858 -s 9 -d 5 -p DSR -e 60 -c 2 -a 0 -i 4 -k RTR
h -t 15.062887858 -s 9 -d 5 -p DSR -e 60 -c 2 -a 0 -i 4 -k RTR
+ -t 15.064559163 -s 8 -d -1 -p DSR -e 92 -c 2 -a 0 -i 3 -k RTR 
- -t 15.064559163 -s 8 -d -1 -p DSR -e 92 -c 2 -a 0 -i 3 -k RTR
h -t 15.064559163 -s 8 -d -1 -p DSR -e 92 -c 2 -a 0 -i 3 -k RTR
+ -t 15.064681858 -s 5 -d 1 -p DSR -e 60 -c 2 -a 0 -i 4 -k RTR 
- -t 15.064681858 -s 5 -d 1 -p DSR -e 60 -c 2 -a 0 -i 4 -k RTR
h -t 15.064681858 -s 5 -d 1 -p DSR -e 60 -c 2 -a 0 -i 4 -k RTR
+ -t 15.065356663 -s 10 -d -1 -p DSR -e 120 -c 2 -a 0 -i 3 -k RTR 
- -t 15.065356663 -s 10 -d -1 -p DSR -e 120 -c 2 -a 0 -i 3 -k RTR
h -t 15.065356663 -s 10 -d -1 -p DSR -e 120 -c 2 -a 0 -i 3 -k RTR
+ -t 15.066547931 -s 0 -d -1 -p cbr -e 512 -c 2 -a 0 -i 7 -k AGT 
- -t 15.066547931 -s 0 -d -1 -p cbr -e 512 -c 2 -a 0 -i 7 -k AGT
h -t 15.066547931 -s 0 -d -1 -p cbr -e 512 -c 2 -a 0 -i 7 -k AGT
+ -t 15.066839858 -s 1 -d 0 -p DSR -e 60 -c 2 -a 0 -i 4 -k RTR 
- -t 15.066839858 -s 1 -d 0 -p DSR -e 60 -c 2 -a 0 -i 4 -k RTR
h -t 15.066839858 -s 1 -d 0 -p DSR -e 60 -c 2 -a 0 -i 4 -k RTR
+ -t 15.067070030 -s 9 -d 6 -p DSR -e 60 -c 2 -a 0 -i 6 -k RTR 
- -t 15.067070030 -s 9 -d 6 -p DSR -e 60 -c 2 -a 0 -i 6 -k RTR
h -t 15.067070030 -s 9 -d 6 -p DSR -e 60 -c 2 -a 0 -i 6 -k RTR
+ -t 15.068957858 -s 0 -d 1 -p cbr -e 556 -c 2 -a 0 -i 0 -k RTR 
- -t 15.068957858 -s 0 -d 1 -p cbr -e 556 -c 2 -a 0 -i 0 -k RTR
h -t 15.068957858 -s 0 -d 1 -p cbr -e 556 -c 2 -a 0 -i 0 -k RTR
+ -t 15.069670531 -s 9 -d 7 -p DSR -e 68 -c 2 -a 0 -i 5 -k RTR 
- -t 15.069670531 -s 9 -d 7 -p DSR -e 68 -c 2 -a 0 -i 5 -k RTR
h -t 15.069670531 -s 9 -d 7 -p DSR -e 68 -c 2 -a 0 -i 5 -k RTR
+ -t 15.074525272 -s 6 -d 3 -p DSR -e 60 -c 2 -a 0 -i 6 -k RTR 
- -t 15.074525272 -s 6 -d 3 -p DSR -e 60 -c 2 -a 0 -i 6 -k RTR
h -t 15.074525272 -s 6 -d 3 -p DSR -e 60 -c 2 -a 0 -i 6 -k RTR
+ -t 15.075090435 -s 9 -d 8 -p DSR -e 68 -c 2 -a 0 -i 9 -k RTR 
- -t 15.075090435 -s 9 -d 8 -p DSR -e 68 -c 2 -a 0 -i 9 -k RTR
h -t 15.075090435 -s 9 -d 8 -p DSR -e 68 -c 2 -a 0 -i 9 -k RTR
+ -t 15.076787158 -s 7 -d 5 -p DSR -e 68 -c 2 -a 0 -i 5 -k RTR 
- -t 15.076787158 -s 7 -d 5 -p DSR -e 68 -c 2 -a 0 -i 5 -k RTR
h -t 15.076787158 -s 7 -d 5 -p DSR -e 68 -c 2 -a 0 -i 5 -k RTR
+ -t 15.078828572 -s 5 -d 1 -p DSR -e 68 -c 2 -a 0 -i 5 -k RTR 
- -t 15.078828572 -s 5 -d 1 -p DSR -e 68 -c 2 -a 0 -i 5 -k RTR
h -t 15.078828572 -s 5 -d 1 -p DSR -e 68 -c 2 -a 0 -i 5 -k RTR
+ -t 15.080931239 -s 8 -d 6 -p DSR -e 68 -c 2 -a 0 -i 9 -k RTR 
- -t 15.080931239 -s 8 -d 6 -p DSR -e 68 -c 2 -a 0 -i 9 -k RTR
h -t 15.080931239 -s 8 -d 6 -p DSR -e 68 -c 2 -a 0 -i 9 -k RTR
+ -t 15.083069710 -s 3 -d 0 -p DSR -e 60 -c 2 -a 0 -i 6 -k RTR 
- -t 15.083069710 -s 3 -d 0 -p DSR -e 60 -c 2 -a 0 -i 6 -k RTR
h -t 15.083069710 -s 3 -d 0 -p DSR -e 60 -c 2 -a 0 -i 6 -k RTR
+ -t 15.085212182 -s 1 -d 0 -p DSR -e 68 -c 2 -a 0 -i 5 -k RTR 
- -t 15.085212182 -s 1 -d 0 -p DSR -e 68 -c 2 -a 0 -i 5 -k RTR
h -t 15.085212182 -s 1 -d 0 -p DSR -e 68 -c 2 -a 0 -i 5 -k RTR
+ -t 15.092259482 -s 6 -d 3 -p DSR -e 68 -c 2 -a 0 -i 9 -k RTR 
- -t 15.092259482 -s 6 -d 3 -p DSR -e 68 -c 2 -a 0 -i 9 -k RTR
h -t 15.092259482 -s 6 -d 3 -p DSR -e 68 -c 2 -a 0 -i 9 -k RTR
+ -t 15.094461482 -s 3 -d 0 -p DSR -e 68 -c 2 -a 0 -i 9 -k RTR 
- -t 15.094461482 -s 3 -d 0 -p DSR -e 68 -c 2 -a 0 -i 9 -k RTR
h -t 15.094461482 -s 3 -d 0 -p DSR -e 68 -c 2 -a 0 -i 9 -k RTR
+ -t 15.098957858 -s 0 -d 1 -p cbr -e 556 -c 2 -a 0 -i 7 -k RTR 
- -t 15.098957858 -s 0 -d 1 -p cbr -e 556 -c 2 -a 0 -i 7 -k RTR
h -t 15.098957858 -s 0 -d 1 -p cbr -e 556 -c 2 -a 0 -i 7 -k RTR
+ -t 15.103208896 -s 1 -d 5 -p cbr -e 556 -c 2 -a 0 -i 0 -k RTR 
- -t 15.103208896 -s 1 -d 5 -p cbr -e 556 -c 2 -a 0 -i 0 -k RTR
h -t 15.103208896 -s 1 -d 5 -p cbr -e 556 -c 2 -a 0 -i 0 -k RTR
+ -t 15.109574896 -s 5 -d 9 -p cbr -e 556 -c 2 -a 0 -i 0 -k RTR 
- -t 15.109574896 -s 5 -d 9 -p cbr -e 556 -c 2 -a 0 -i 0 -k RTR
h -t 15.109574896 -s 5 -d 9 -p cbr -e 556 -c 2 -a 0 -i 0 -k RTR
r -t 15.115720896 -s 9 -d 9 -p cbr -e 512 -c 2 -a 0 -i 0 -k AGT
+ -t 15.116165357 -s 0 -d -1 -p cbr -e 512 -c 2 -a 0 -i 10 -k AGT 
- -t 15.116165357 -s 0 -d -1 -p cbr -e 512 -c 2 -a 0 -i 10 -k AGT
h -t 15.116165357 -s 0 -d -1 -p cbr -e 512 -c 2 -a 0 -i 10 -k AGT
+ -t 15.116165357 -s 0 -d 1 -p cbr -e 556 -c 2 -a 0 -i 10 -k RTR 
- -t 15.116165357 -s 0 -d 1 -p cbr -e 556 -c 2 -a 0 -i 10 -k RTR
h -t 15.116165357 -s 0 -d 1 -p cbr -e 556 -c 2 -a 0 -i 10 -k RTR
+ -t 15.122032387 -s 1 -d 5 -p cbr -e 556 -c 2 -a 0 -i 7 -k RTR 
- -t 15.122032387 -s 1 -d 5 -p cbr -e 556 -c 2 -a 0 -i 7 -k RTR
h -t 15.122032387 -s 1 -d 5 -p cbr -e 556 -c 2 -a 0 -i 7 -k RTR
+ -t 15.128258387 -s 5 -d 9 -p cbr -e 556 -c 2 -a 0 -i 7 -k RTR 
- -t 15.128258387 -s 5 -d 9 -p cbr -e 556 -c 2 -a 0 -i 7 -k RTR
h -t 15.128258387 -s 5 -d 9 -p cbr -e 556 -c 2 -a 0 -i 7 -k RTR
r -t 15.134264387 -s 9 -d 9 -p cbr -e 512 -c 2 -a 0 -i 7 -k AGT
+ -t 15.140735877 -s 1 -d 5 -p cbr -e 556 -c 2 -a 0 -i 10 -k RTR 
- -t 15.140735877 -s 1 -d 5 -p cbr -e 556 -c 2 -a 0 -i 10 -k RTR
h -t 15.140735877 -s 1 -d 5 -p cbr -e 556 -c 2 -a 0 -i 10 -k RTR
+ -t 15.144801287 -s 0 -d -1 -p cbr -e 512 -c 2 -a 0 -i 11 -k AGT 
- -t 15.144801287 -s 0 -d -1 -p cbr -e 512 -c 2 -a 0 -i 11 -k AGT
h -t 15.144801287 -s 0 -d -1 -p cbr -e 512 -c 2 -a 0 -i 11 -k AGT
+ -t 15.144801287 -s 0 -d 1 -p cbr -e 532 -c 2 -a 0 -i 11 -k RTR 
- -t 15.144801287 -s 0 -d 1 -p cbr -e 532 -c 2 -a 0 -i 11 -k RTR
h -t 15.144801287 -s 0 -d 1 -p cbr -e 532 -c 2 -a 0 -i 11 -k RTR
+ -t 15.146721877 -s 5 -d 9 -p cbr -e 556 -c 2 -a 0 -i 10 -k RTR 
- -t 15.146721877 -s 5 -d 9 -p cbr -e 556 -c 2 -a 0 -i 10 -k RTR
h -t 15.146721877 -s 5 -d 9 -p cbr -e 556 -c 2 -a 0 -i 10 -k RTR
r -t 15.153067877 -s 9 -d 9 -p cbr -e 512 -c 2 -a 0 -i 10 -k AGT
+ -t 15.159267368 -s 1 -d 5 -p cbr -e 532 -c 2 -a 0 -i 11 -k RTR 
- -t 15.159267368 -s 1 -d 5 -p cbr -e 532 -c 2 -a 0 -i 11 -k RTR
h -t 15.159267368 -s 1 -d 5 -p cbr -e 532 -c 2 -a 0 -i 11 -k RTR
+ -t 15.165121368 -s 5 -d 9 -p cbr -e 532 -c 2 -a 0 -i 11 -k RTR 
- -t 15.165121368 -s 5 -d 9 -p cbr -e 532 -c 2 -a 0 -i 11 -k RTR
h -t 15.165121368 -s 5 -d 9 -p cbr -e 532 -c 2 -a 0 -i 11 -k RTR
r -t 15.171115368 -s 9 -d 9 -p cbr -e 512 -c 2 -a 0 -i 11 -k AGT
+ -t 15.199352926 -s 0 -d -1 -p cbr -e 512 -c 2 -a 0 -i 12 -k AGT 
- -t 15.199352926 -s 0 -d -1 -p cbr -e 512 -c 2 -a 0 -i 12 -k AGT
h -t 15.199352926 -s 0 -d -1 -p cbr -e 512 -c 2 -a 0 -i 12 -k AGT
+ -t 15.199352926 -s 0 -d 1 -p cbr -e 532 -c 2 -a 0 -i 12 -k RTR 
- -t 15.199352926 -s 0 -d 1 -p cbr -e 532 -c 2 -a 0 -i 12 -k RTR
h -t 15.199352926 -s 0 -d 1 -p cbr -e 532 -c 2 -a 0 -i 12 -k RTR
+ -t 15.205362926 -s 1 -d 5 -p cbr -e 532 -c 2 -a 0 -i 12 -k RTR 
- -t 15.205362926 -s 1 -d 5 -p cbr -e 532 -c 2 -a 0 -i 12 -k RTR
h -t 15.205362926 -s 1 -d 5 -p cbr -e 532 -c 2 -a 0 -i 12 -k RTR
+ -t 15.211196926 -s 5 -d 9 -p cbr -e 532 -c 2 -a 0 -i 12 -k RTR 
- -t 15.211196926 -s 5 -d 9 -p cbr -e 532 -c 2 -a 0 -i 12 -k RTR
h -t 15.211196926 -s 5 -d 9 -p cbr -e 532 -c 2 -a 0 -i 12 -k RTR
r -t 15.217310926 -s 9 -d 9 -p cbr -e 512 -c 2 -a 0 -i 12 -k AGT
+ -t 15.252968028 -s 0 -d -1 -p cbr -e 512 -c 2 -a 0 -i 13 -k AGT 
- -t 15.252968028 -s 0 -d -1 -p cbr -e 512 -c 2 -a 0 -i 13 -k AGT
h -t 15.252968028 -s 0 -d -1 -p cbr -e 512 -c 2 -a 0 -i 13 -k AGT
+ -t 15.252968028 -s 0 -d 1 -p cbr -e 532 -c 2 -a 0 -i 13 -k RTR 
- -t 15.252968028 -s 0 -d 1 -p cbr -e 532 -c 2 -a 0 -i 13 -k RTR
h -t 15.252968028 -s 0 -d 1 -p cbr -e 532 -c 2 -a 0 -i 13 -k RTR
+ -t 15.258758028 -s 1 -d 5 -p cbr -e 532 -c 2 -a 0 -i 13 -k RTR 
- -t 15.258758028 -s 1 -d 5 -p cbr -e 532 -c 2 -a 0 -i 13 -k RTR
h -t 15.258758028 -s 1 -d 5 -p cbr -e 532 -c 2 -a 0 -i 13 -k RTR
+ -t 15.264792028 -s 5 -d 9 -p cbr -e 532 -c 2 -a 0 -i 13 -k RTR 
- -t 15.264792028 -s 5 -d 9 -p cbr -e 532 -c 2 -a 0 -i 13 -k RTR
h -t 15.264792028 -s 5 -d 9 -p cbr -e 532 -c 2 -a 0 -i 13 -k RTR
r -t 15.271046028 -s 9 -d 9 -p cbr -e 512 -c 2 -a 0 -i 13 -k AGT
+ -t 15.297416196 -s 0 -d -1 -p cbr -e 512 -c 2 -a 0 -i 14 -k AGT 
- -t 15.297416196 -s 0 -d -1 -p cbr -e 512 -c 2 -a 0 -i 14 -k AGT
h -t 15.297416196 -s 0 -d -1 -p cbr -e 512 -c 2 -a 0 -i 14 -k AGT
+ -t 15.297416196 -s 0 -d 1 -p cbr -e 532 -c 2 -a 0 -i 14 -k RTR 
- -t 15.297416196 -s 0 -d 1 -p cbr -e 532 -c 2 -a 0 -i 14 -k RTR
h -t 15.297416196 -s 0 -d 1 -p cbr -e 532 -c 2 -a 0 -i 14 -k RTR
+ -t 15.302986196 -s 1 -d 5 -p cbr -e 532 -c 2 -a 0 -i 14 -k RTR 
- -t 15.302986196 -s 1 -d 5 -p cbr -e 532 -c 2 -a 0 -i 14 -k RTR
h -t 15.302986196 -s 1 -d 5 -p cbr -e 532 -c 2 -a 0 -i 14 -k RTR
+ -t 15.308720196 -s 5 -d 9 -p cbr -e 532 -c 2 -a 0 -i 14 -k RTR 
- -t 15.308720196 -s 5 -d 9 -p cbr -e 532 -c 2 -a 0 -i 14 -k RTR
h -t 15.308720196 -s 5 -d 9 -p cbr -e 532 -c 2 -a 0 -i 14 -k RTR
r -t 15.314754196 -s 9 -d 9 -p cbr -e 512 -c 2 -a 0 -i 14 -k AGT
+ -t 15.361995780 -s 0 -d -1 -p cbr -e 512 -c 2 -a 0 -i 15 -k AGT 
- -t 15.361995780 -s 0 -d -1 -p cbr -e 512 -c 2 -a 0 -i 15 -k AGT
h -t 15.361995780 -s 0 -d -1 -p cbr -e 512 -c 2 -a 0 -i 15 -k AGT
+ -t 15.361995780 -s 0 -d 1 -p cbr -e 532 -c 2 -a 0 -i 15 -k RTR 
- -t 15.361995780 -s 0 -d 1 -p cbr -e 532 -c 2 -a 0 -i 15 -k RTR
h -t 15.361995780 -s 0 -d 1 -p cbr -e 532 -c 2 -a 0 -i 15 -k RTR
+ -t 15.367605780 -s 1 -d 5 -p cbr -e 532 -c 2 -a 0 -i 15 -k RTR 
- -t 15.367605780 -s 1 -d 5 -p cbr -e 532 -c 2 -a 0 -i 15 -k RTR
h -t 15.367605780 -s 1 -d 5 -p cbr -e 532 -c 2 -a 0 -i 15 -k RTR
+ -t 15.373719780 -s 5 -d 9 -p cbr -e 532 -c 2 -a 0 -i 15 -k RTR 
- -t 15.373719780 -s 5 -d 9 -p cbr -e 532 -c 2 -a 0 -i 15 -k RTR
h -t 15.373719780 -s 5 -d 9 -p cbr -e 532 -c 2 -a 0 -i 15 -k RTR
r -t 15.379533780 -s 9 -d 9 -p cbr -e 512 -c 2 -a 0 -i 15 -k AGT
+ -t 15.414106859 -s 0 -d -1 -p cbr -e 512 -c 2 -a 0 -i 16 -k AGT 
- -t 15.414106859 -s 0 -d -1 -p cbr -e 512 -c 2 -a 0 -i 16 -k AGT
h -t 15.414106859 -s 0 -d -1 -p cbr -e 512 -c 2 -a 0 -i 16 -k AGT
+ -t 15.414106859 -s 0 -d 1 -p cbr -e 532 -c 2 -a 0 -i 16 -k RTR 
- -t 15.414106859 -s 0 -d 1 -p cbr -e 532 -c 2 -a 0 -i 16 -k RTR
h -t 15.414106859 -s 0 -d 1 -p cbr -e 532 -c 2 -a 0 -i 16 -k RTR
+ -t 15.419776859 -s 1 -d 5 -p cbr -e 532 -c 2 -a 0 -i 16 -k RTR 
- -t 15.419776859 -s 1 -d 5 -p cbr -e 532 -c 2 -a 0 -i 16 -k RTR
h -t 15.419776859 -s 1 -d 5 -p cbr -e 532 -c 2 -a 0 -i 16 -k RTR
+ -t 15.425970859 -s 5 -d 9 -p cbr -e 532 -c 2 -a 0 -i 16 -k RTR 
- -t 15.425970859 -s 5 -d 9 -p cbr -e 532 -c 2 -a 0 -i 16 -k RTR
h -t 15.425970859 -s 5 -d 9 -p cbr -e 532 -c 2 -a 0 -i 16 -k RTR
r -t 15.432164859 -s 9 -d 9 -p cbr -e 512 -c 2 -a 0 -i 16 -k AGT
+ -t 15.452599158 -s 0 -d -1 -p cbr -e 512 -c 2 -a 0 -i 17 -k AGT 
- -t 15.452599158 -s 0 -d -1 -p cbr -e 512 -c 2 -a 0 -i 17 -k AGT
h -t 15.452599158 -s 0 -d -1 -p cbr -e 512 -c 2 -a 0 -i 17 -k AGT
+ -t 15.452599158 -s 0 -d 1 -p cbr -e 532 -c 2 -a 0 -i 17 -k RTR 
- -t 15.452599158 -s 0 -d 1 -p cbr -e 532 -c 2 -a 0 -i 17 -k RTR
h -t 15.452599158 -s 0 -d 1 -p cbr -e 532 -c 2 -a 0 -i 17 -k RTR
+ -t 15.458189158 -s 1 -d 5 -p cbr -e 532 -c 2 -a 0 -i 17 -k RTR 
- -t 15.458189158 -s 1 -d 5 -p cbr -e 532 -c 2 -a 0 -i 17 -k RTR
h -t 15.458189158 -s 1 -d 5 -p cbr -e 532 -c 2 -a 0 -i 17 -k RTR
+ -t 15.464083158 -s 5 -d 9 -p cbr -e 532 -c 2 -a 0 -i 17 -k RTR 
- -t 15.464083158 -s 5 -d 9 -p cbr -e 532 -c 2 -a 0 -i 17 -k RTR
h -t 15.464083158 -s 5 -d 9 -p cbr -e 532 -c 2 -a 0 -i 17 -k RTR
r -t 15.469897158 -s 9 -d 9 -p cbr -e 512 -c 2 -a 0 -i 17 -k AGT
+ -t 15.514579062 -s 0 -d -1 -p cbr -e 512 -c 2 -a 0 -i 18 -k AGT 
- -t 15.514579062 -s 0 -d -1 -p cbr -e 512 -c 2 -a 0 -i 18 -k AGT
h -t 15.514579062 -s 0 -d -1 -p cbr -e 512 -c 2 -a 0 -i 18 -k AGT
+ -t 15.514579062 -s 0 -d 1 -p cbr -e 532 -c 2 -a 0 -i 18 -k RTR 
- -t 15.514579062 -s 0 -d 1 -p cbr -e 532 -c 2 -a 0 -i 18 -k RTR
h -t 15.514579062 -s 0 -d 1 -p cbr -e 532 -c 2 -a 0 -i 18 -k RTR
+ -t 15.520169062 -s 1 -d 5 -p cbr -e 532 -c 2 -a 0 -i 18 -k RTR 
- -t 15.520169062 -s 1 -d 5 -p cbr -e 532 -c 2 -a 0 -i 18 -k RTR
h -t 15.520169062 -s 1 -d 5 -p cbr -e 532 -c 2 -a 0 -i 18 -k RTR
+ -t 15.526363062 -s 5 -d 9 -p cbr -e 532 -c 2 -a 0 -i 18 -k RTR 
- -t 15.526363062 -s 5 -d 9 -p cbr -e 532 -c 2 -a 0 -i 18 -k RTR
h -t 15.526363062 -s 5 -d 9 -p cbr -e 532 -c 2 -a 0 -i 18 -k RTR
r -t 15.532457062 -s 9 -d 9 -p cbr -e 512 -c 2 -a 0 -i 18 -k AGT
+ -t 15.573451941 -s 0 -d -1 -p cbr -e 512 -c 2 -a 0 -i 19 -k AGT 
- -t 15.573451941 -s 0 -d -1 -p cbr -e 512 -c 2 -a 0 -i 19 -k AGT
h -t 15.573451941 -s 0 -d -1 -p cbr -e 512 -c 2 -a 0 -i 19 -k AGT
+ -t 15.573451941 -s 0 -d 1 -p cbr -e 532 -c 2 -a 0 -i 19 -k RTR 
- -t 15.573451941 -s 0 -d 1 -p cbr -e 532 -c 2 -a 0 -i 19 -k RTR
h -t 15.573451941 -s 0 -d 1 -p cbr -e 532 -c 2 -a 0 -i 19 -k RTR
+ -t 15.579081941 -s 1 -d 5 -p cbr -e 532 -c 2 -a 0 -i 19 -k RTR 
- -t 15.579081941 -s 1 -d 5 -p cbr -e 532 -c 2 -a 0 -i 19 -k RTR
h -t 15.579081941 -s 1 -d 5 -p cbr -e 532 -c 2 -a 0 -i 19 -k RTR
+ -t 15.584875941 -s 5 -d 9 -p cbr -e 532 -c 2 -a 0 -i 19 -k RTR 
- -t 15.584875941 -s 5 -d 9 -p cbr -e 532 -c 2 -a 0 -i 19 -k RTR
h -t 15.584875941 -s 5 -d 9 -p cbr -e 532 -c 2 -a 0 -i 19 -k RTR
r -t 15.590689941 -s 9 -d 9 -p cbr -e 512 -c 2 -a 0 -i 19 -k AGT
+ -t 15.647915665 -s 0 -d -1 -p cbr -e 512 -c 2 -a 0 -i 20 -k AGT 
- -t 15.647915665 -s 0 -d -1 -p cbr -e 512 -c 2 -a 0 -i 20 -k AGT
h -t 15.647915665 -s 0 -d -1 -p cbr -e 512 -c 2 -a 0 -i 20 -k AGT
+ -t 15.647915665 -s 0 -d 1 -p cbr -e 532 -c 2 -a 0 -i 20 -k RTR 
- -t 15.647915665 -s 0 -d 1 -p cbr -e 532 -c 2 -a 0 -i 20 -k RTR
h -t 15.647915665 -s 0 -d 1 -p cbr -e 532 -c 2 -a 0 -i 20 -k RTR
+ -t 15.653745665 -s 1 -d 5 -p cbr -e 532 -c 2 -a 0 -i 20 -k RTR 
- -t 15.653745665 -s 1 -d 5 -p cbr -e 532 -c 2 -a 0 -i 20 -k RTR
h -t 15.653745665 -s 1 -d 5 -p cbr -e 532 -c 2 -a 0 -i 20 -k RTR
+ -t 15.660039665 -s 5 -d 9 -p cbr -e 532 -c 2 -a 0 -i 20 -k RTR 
- -t 15.660039665 -s 5 -d 9 -p cbr -e 532 -c 2 -a 0 -i 20 -k RTR
h -t 15.660039665 -s 5 -d 9 -p cbr -e 532 -c 2 -a 0 -i 20 -k RTR
r -t 15.666073665 -s 9 -d 9 -p cbr -e 512 -c 2 -a 0 -i 20 -k AGT
+ -t 15.699327273 -s 0 -d -1 -p cbr -e 512 -c 2 -a 0 -i 21 -k AGT 
- -t 15.699327273 -s 0 -d -1 -p cbr -e 512 -c 2 -a 0 -i 21 -k AGT
h -t 15.699327273 -s 0 -d -1 -p cbr -e 512 -c 2 -a 0 -i 21 -k AGT
+ -t 15.699327273 -s 0 -d 1 -p cbr -e 532 -c 2 -a 0 -i 21 -k RTR 
- -t 15.699327273 -s 0 -d 1 -p cbr -e 532 -c 2 -a 0 -i 21 -k RTR
h -t 15.699327273 -s 0 -d 1 -p cbr -e 532 -c 2 -a 0 -i 21 -k RTR
+ -t 15.705117273 -s 1 -d 5 -p cbr -e 532 -c 2 -a 0 -i 21 -k RTR 
- -t 15.705117273 -s 1 -d 5 -p cbr -e 532 -c 2 -a 0 -i 21 -k RTR
h -t 15.705117273 -s 1 -d 5 -p cbr -e 532 -c 2 -a 0 -i 21 -k RTR
+ -t 15.711031273 -s 5 -d 9 -p cbr -e 532 -c 2 -a 0 -i 21 -k RTR 
- -t 15.711031273 -s 5 -d 9 -p cbr -e 532 -c 2 -a 0 -i 21 -k RTR
h -t 15.711031273 -s 5 -d 9 -p cbr -e 532 -c 2 -a 0 -i 21 -k RTR
r -t 15.717105273 -s 9 -d 9 -p cbr -e 512 -c 2 -a 0 -i 21 -k AGT
+ -t 15.750174021 -s 0 -d -1 -p cbr -e 512 -c 2 -a 0 -i 22 -k AGT 
- -t 15.750174021 -s 0 -d -1 -p cbr -e 512 -c 2 -a 0 -i 22 -k AGT
h -t 15.750174021 -s 0 -d -1 -p cbr -e 512 -c 2 -a 0 -i 22 -k AGT
+ -t 15.750174021 -s 0 -d 1 -p cbr -e 532 -c 2 -a 0 -i 22 -k RTR 
- -t 15.750174021 -s 0 -d 1 -p cbr -e 532 -c 2 -a 0 -i 22 -k RTR
h -t 15.750174021 -s 0 -d 1 -p cbr -e 532 -c 2 -a 0 -i 22 -k RTR
+ -t 15.755724021 -s 1 -d 5 -p cbr -e 532 -c 2 -a 0 -i 22 -k RTR 
- -t 15.755724021 -s 1 -d 5 -p cbr -e 532 -c 2 -a 0 -i 22 -k RTR
h -t 15.755724021 -s 1 -d 5 -p cbr -e 532 -c 2 -a 0 -i 22 -k RTR
+ -t 15.761558021 -s 5 -d 9 -p cbr -e 532 -c 2 -a 0 -i 22 -k RTR 
- -t 15.761558021 -s 5 -d 9 -p cbr -e 532 -c 2 -a 0 -i 22 -k RTR
h -t 15.761558021 -s 5 -d 9 -p cbr -e 532 -c 2 -a 0 -i 22 -k RTR
r -t 15.767792021 -s 9 -d 9 -p cbr -e 512 -c 2 -a 0 -i 22 -k AGT
+ -t 15.776556167 -s 0 -d -1 -p cbr -e 512 -c 2 -a 0 -i 23 -k AGT 
- -t 15.776556167 -s 0 -d -1 -p cbr -e 512 -c 2 -a 0 -i 23 -k AGT
h -t 15.776556167 -s 0 -d -1 -p cbr -e 512 -c 2 -a 0 -i 23 -k AGT
+ -t 15.776556167 -s 0 -d 1 -p cbr -e 532 -c 2 -a 0 -i 23 -k RTR 
- -t 15.776556167 -s 0 -d 1 -p cbr -e 532 -c 2 -a 0 -i 23 -k RTR
h -t 15.776556167 -s 0 -d 1 -p cbr -e 532 -c 2 -a 0 -i 23 -k RTR
+ -t 15.782426167 -s 1 -d 5 -p cbr -e 532 -c 2 -a 0 -i 23 -k RTR 
- -t 15.782426167 -s 1 -d 5 -p cbr -e 532 -c 2 -a 0 -i 23 -k RTR
h -t 15.782426167 -s 1 -d 5 -p cbr -e 532 -c 2 -a 0 -i 23 -k RTR
+ -t 15.788380167 -s 5 -d 9 -p cbr -e 532 -c 2 -a 0 -i 23 -k RTR 
- -t 15.788380167 -s 5 -d 9 -p cbr -e 532 -c 2 -a 0 -i 23 -k RTR
h -t 15.788380167 -s 5 -d 9 -p cbr -e 532 -c 2 -a 0 -i 23 -k RTR
r -t 15.794174167 -s 9 -d 9 -p cbr -e 512 -c 2 -a 0 -i 23 -k AGT
+ -t 15.815596255 -s 0 -d -1 -p cbr -e 512 -c 2 -a 0 -i 24 -k AGT 
- -t 15.815596255 -s 0 -d -1 -p cbr -e 512 -c 2 -a 0 -i 24 -k AGT
h -t 15.815596255 -s 0 -d -1 -p cbr -e 512 -c 2 -a 0 -i 24 -k AGT
+ -t 15.815596255 -s 0 -d 1 -p cbr -e 532 -c 2 -a 0 -i 24 -k RTR 
- -t 15.815596255 -s 0 -d 1 -p cbr -e 532 -c 2 -a 0 -i 24 -k RTR
h -t 15.815596255 -s 0 -d 1 -p cbr -e 532 -c 2 -a 0 -i 24 -k RTR
+ -t 15.821446255 -s 1 -d 5 -p cbr -e 532 -c 2 -a 0 -i 24 -k RTR 
- -t 15.821446255 -s 1 -d 5 -p cbr -e 532 -c 2 -a 0 -i 24 -k RTR
h -t 15.821446255 -s 1 -d 5 -p cbr -e 532 -c 2 -a 0 -i 24 -k RTR
+ -t 15.827520255 -s 5 -d 9 -p cbr -e 532 -c 2 -a 0 -i 24 -k RTR 
- -t 15.827520255 -s 5 -d 9 -p cbr -e 532 -c 2 -a 0 -i 24 -k RTR
h -t 15.827520255 -s 5 -d 9 -p cbr -e 532 -c 2 -a 0 -i 24 -k RTR
r -t 15.833674255 -s 9 -d 9 -p cbr -e 512 -c 2 -a 0 -i 24 -k AGT
+ -t 15.855287392 -s 0 -d -1 -p cbr -e 512 -c 2 -a 0 -i 25 -k AGT 
- -t 15.855287392 -s 0 -d -1 -p cbr -e 512 -c 2 -a 0 -i 25 -k AGT
h -t 15.855287392 -s 0 -d -1 -p cbr -e 512 -c 2 -a 0 -i 25 -k AGT
+ -t 15.855287392 -s 0 -d 1 -p cbr -e 532 -c 2 -a 0 -i 25 -k RTR 
- -t 15.855287392 -s 0 -d 1 -p cbr -e 532 -c 2 -a 0 -i 25 -k RTR
h -t 15.855287392 -s 0 -d 1 -p cbr -e 532 -c 2 -a 0 -i 25 -k RTR
+ -t 15.860797392 -s 1 -d 5 -p cbr -e 532 -c 2 -a 0 -i 25 -k RTR 
- -t 15.860797392 -s 1 -d 5 -p cbr -e 532 -c 2 -a 0 -i 25 -k RTR
h -t 15.860797392 -s 1 -d 5 -p cbr -e 532 -c 2 -a 0 -i 25 -k RTR
+ -t 15.866531392 -s 5 -d 9 -p cbr -e 532 -c 2 -a 0 -i 25 -k RTR 
- -t 15.866531392 -s 5 -d 9 -p cbr -e 532 -c 2 -a 0 -i 25 -k RTR
h -t 15.866531392 -s 5 -d 9 -p cbr -e 532 -c 2 -a 0 -i 25 -k RTR
r -t 15.872565392 -s 9 -d 9 -p cbr -e 512 -c 2 -a 0 -i 25 -k AGT
+ -t 15.881477885 -s 0 -d -1 -p cbr -e 512 -c 2 -a 0 -i 26 -k AGT 
- -t 15.881477885 -s 0 -d -1 -p cbr -e 512 -c 2 -a 0 -i 26 -k AGT
h -t 15.881477885 -s 0 -d -1 -p cbr -e 512 -c 2 -a 0 -i 26 -k AGT
+ -t 15.881477885 -s 0 -d 1 -p cbr -e 532 -c 2 -a 0 -i 26 -k RTR 
- -t 15.881477885 -s 0 -d 1 -p cbr -e 532 -c 2 -a 0 -i 26 -k RTR
h -t 15.881477885 -s 0 -d 1 -p cbr -e 532 -c 2 -a 0 -i 26 -k RTR
+ -t 15.887027885 -s 1 -d 5 -p cbr -e 532 -c 2 -a 0 -i 26 -k RTR 
- -t 15.887027885 -s 1 -d 5 -p cbr -e 532 -c 2 -a 0 -i 26 -k RTR
h -t 15.887027885 -s 1 -d 5 -p cbr -e 532 -c 2 -a 0 -i 26 -k RTR
+ -t 15.893201885 -s 5 -d 9 -p cbr -e 532 -c 2 -a 0 -i 26 -k RTR 
- -t 15.893201885 -s 5 -d 9 -p cbr -e 532 -c 2 -a 0 -i 26 -k RTR
h -t 15.893201885 -s 5 -d 9 -p cbr -e 532 -c 2 -a 0 -i 26 -k RTR
r -t 15.899015885 -s 9 -d 9 -p cbr -e 512 -c 2 -a 0 -i 26 -k AGT
+ -t 15.955502955 -s 0 -d -1 -p cbr -e 512 -c 2 -a 0 -i 27 -k AGT 
- -t 15.955502955 -s 0 -d -1 -p cbr -e 512 -c 2 -a 0 -i 27 -k AGT
h -t 15.955502955 -s 0 -d -1 -p cbr -e 512 -c 2 -a 0 -i 27 -k AGT
+ -t 15.955502955 -s 0 -d 1 -p cbr -e 532 -c 2 -a 0 -i 27 -k RTR 
- -t 15.955502955 -s 0 -d 1 -p cbr -e 532 -c 2 -a 0 -i 27 -k RTR
h -t 15.955502955 -s 0 -d 1 -p cbr -e 532 -c 2 -a 0 -i 27 -k RTR
+ -t 15.961372955 -s 1 -d 5 -p cbr -e 532 -c 2 -a 0 -i 27 -k RTR 
- -t 15.961372955 -s 1 -d 5 -p cbr -e 532 -c 2 -a 0 -i 27 -k RTR
h -t 15.961372955 -s 1 -d 5 -p cbr -e 532 -c 2 -a 0 -i 27 -k RTR
+ -t 15.967126955 -s 5 -d 9 -p cbr -e 532 -c 2 -a 0 -i 27 -k RTR 
- -t 15.967126955 -s 5 -d 9 -p cbr -e 532 -c 2 -a 0 -i 27 -k RTR
h -t 15.967126955 -s 5 -d 9 -p cbr -e 532 -c 2 -a 0 -i 27 -k RTR
r -t 15.972840955 -s 9 -d 9 -p cbr -e 512 -c 2 -a 0 -i 27 -k AGT
+ -t 16.011782031 -s 0 -d -1 -p cbr -e 512 -c 2 -a 0 -i 28 -k AGT 
- -t 16.011782031 -s 0 -d -1 -p cbr -e 512 -c 2 -a 0 -i 28 -k AGT
h -t 16.011782031 -s 0 -d -1 -p cbr -e 512 -c 2 -a 0 -i 28 -k AGT
+ -t 16.011782031 -s 0 -d 1 -p cbr -e 532 -c 2 -a 0 -i 28 -k RTR 
- -t 16.011782031 -s 0 -d 1 -p cbr -e 532 -c 2 -a 0 -i 28 -k RTR
h -t 16.011782031 -s 0 -d 1 -p cbr -e 532 -c 2 -a 0 -i 28 -k RTR
+ -t 16.017532031 -s 1 -d 5 -p cbr -e 532 -c 2 -a 0 -i 28 -k RTR 
- -t 16.017532031 -s 1 -d 5 -p cbr -e 532 -c 2 -a 0 -i 28 -k RTR
h -t 16.017532031 -s 1 -d 5 -p cbr -e 532 -c 2 -a 0 -i 28 -k RTR
+ -t 16.023406031 -s 5 -d 9 -p cbr -e 532 -c 2 -a 0 -i 28 -k RTR 
- -t 16.023406031 -s 5 -d 9 -p cbr -e 532 -c 2 -a 0 -i 28 -k RTR
h -t 16.023406031 -s 5 -d 9 -p cbr -e 532 -c 2 -a 0 -i 28 -k RTR
r -t 16.029360031 -s 9 -d 9 -p cbr -e 512 -c 2 -a 0 -i 28 -k AGT
+ -t 16.038140289 -s 0 -d -1 -p cbr -e 512 -c 2 -a 0 -i 29 -k AGT 
- -t 16.038140289 -s 0 -d -1 -p cbr -e 512 -c 2 -a 0 -i 29 -k AGT
h -t 16.038140289 -s 0 -d -1 -p cbr -e 512 -c 2 -a 0 -i 29 -k AGT
+ -t 16.038140289 -s 0 -d 1 -p cbr -e 532 -c 2 -a 0 -i 29 -k RTR 
- -t 16.038140289 -s 0 -d 1 -p cbr -e 532 -c 2 -a 0 -i 29 -k RTR
h -t 16.038140289 -s 0 -d 1 -p cbr -e 532 -c 2 -a 0 -i 29 -k RTR
+ -t 16.044010289 -s 1 -d 5 -p cbr -e 532 -c 2 -a 0 -i 29 -k RTR 
- -t 16.044010289 -s 1 -d 5 -p cbr -e 532 -c 2 -a 0 -i 29 -k RTR
h -t 16.044010289 -s 1 -d 5 -p cbr -e 532 -c 2 -a 0 -i 29 -k RTR
+ -t 16.049864289 -s 5 -d 9 -p cbr -e 532 -c 2 -a 0 -i 29 -k RTR 
- -t 16.049864289 -s 5 -d 9 -p cbr -e 532 -c 2 -a 0 -i 29 -k RTR
h -t 16.049864289 -s 5 -d 9 -p cbr -e 532 -c 2 -a 0 -i 29 -k RTR
r -t 16.055618289 -s 9 -d 9 -p cbr -e 512 -c 2 -a 0 -i 29 -k AGT
+ -t 16.109939964 -s 0 -d -1 -p cbr -e 512 -c 2 -a 0 -i 30 -k AGT 
- -t 16.109939964 -s 0 -d -1 -p cbr -e 512 -c 2 -a 0 -i 30 -k AGT
h -t 16.109939964 -s 0 -d -1 -p cbr -e 512 -c 2 -a 0 -i 30 -k AGT
+ -t 16.109939964 -s 0 -d 1 -p cbr -e 532 -c 2 -a 0 -i 30 -k RTR 
- -t 16.109939964 -s 0 -d 1 -p cbr -e 532 -c 2 -a 0 -i 30 -k RTR
h -t 16.109939964 -s 0 -d 1 -p cbr -e 532 -c 2 -a 0 -i 30 -k RTR
+ -t 16.115769964 -s 1 -d 5 -p cbr -e 532 -c 2 -a 0 -i 30 -k RTR 
- -t 16.115769964 -s 1 -d 5 -p cbr -e 532 -c 2 -a 0 -i 30 -k RTR
h -t 16.115769964 -s 1 -d 5 -p cbr -e 532 -c 2 -a 0 -i 30 -k RTR
+ -t 16.122083964 -s 5 -d 9 -p cbr -e 532 -c 2 -a 0 -i 30 -k RTR 
- -t 16.122083964 -s 5 -d 9 -p cbr -e 532 -c 2 -a 0 -i 30 -k RTR
h -t 16.122083964 -s 5 -d 9 -p cbr -e 532 -c 2 -a 0 -i 30 -k RTR
r -t 16.128217964 -s 9 -d 9 -p cbr -e 512 -c 2 -a 0 -i 30 -k AGT
+ -t 16.177217925 -s 0 -d -1 -p cbr -e 512 -c 2 -a 0 -i 31 -k AGT 
- -t 16.177217925 -s 0 -d -1 -p cbr -e 512 -c 2 -a 0 -i 31 -k AGT
h -t 16.177217925 -s 0 -d -1 -p cbr -e 512 -c 2 -a 0 -i 31 -k AGT
+ -t 16.177217925 -s 0 -d 1 -p cbr -e 532 -c 2 -a 0 -i 31 -k RTR 
- -t 16.177217925 -s 0 -d 1 -p cbr -e 532 -c 2 -a 0 -i 31 -k RTR
h -t 16.177217925 -s 0 -d 1 -p cbr -e 532 -c 2 -a 0 -i 31 -k RTR
+ -t 16.182747925 -s 1 -d 5 -p cbr -e 532 -c 2 -a 0 -i 31 -k RTR 
- -t 16.182747925 -s 1 -d 5 -p cbr -e 532 -c 2 -a 0 -i 31 -k RTR
h -t 16.182747925 -s 1 -d 5 -p cbr -e 532 -c 2 -a 0 -i 31 -k RTR
+ -t 16.188641925 -s 5 -d 9 -p cbr -e 532 -c 2 -a 0 -i 31 -k RTR 
- -t 16.188641925 -s 5 -d 9 -p cbr -e 532 -c 2 -a 0 -i 31 -k RTR
h -t 16.188641925 -s 5 -d 9 -p cbr -e 532 -c 2 -a 0 -i 31 -k RTR
r -t 16.194815925 -s 9 -d 9 -p cbr -e 512 -c 2 -a 0 -i 31 -k AGT
+ -t 16.204595145 -s 0 -d -1 -p cbr -e 512 -c 2 -a 0 -i 32 -k AGT 
- -t 16.204595145 -s 0 -d -1 -p cbr -e 512 -c 2 -a 0 -i 32 -k AGT
h -t 16.204595145 -s 0 -d -1 -p cbr -e 512 -c 2 -a 0 -i 32 -k AGT
+ -t 16.204595145 -s 0 -d 1 -p cbr -e 532 -c 2 -a 0 -i 32 -k RTR 
- -t 16.204595145 -s 0 -d 1 -p cbr -e 532 -c 2 -a 0 -i 32 -k RTR
h -t 16.204595145 -s 0 -d 1 -p cbr -e 532 -c 2 -a 0 -i 32 -k RTR
+ -t 16.210165145 -s 1 -d 5 -p cbr -e 532 -c 2 -a 0 -i 32 -k RTR 
- -t 16.210165145 -s 1 -d 5 -p cbr -e 532 -c 2 -a 0 -i 32 -k RTR
h -t 16.210165145 -s 1 -d 5 -p cbr -e 532 -c 2 -a 0 -i 32 -k RTR
+ -t 16.215919145 -s 5 -d 9 -p cbr -e 532 -c 2 -a 0 -i 32 -k RTR 
- -t 16.215919145 -s 5 -d 9 -p cbr -e 532 -c 2 -a 0 -i 32 -k RTR
h -t 16.215919145 -s 5 -d 9 -p cbr -e 532 -c 2 -a 0 -i 32 -k RTR
r -t 16.221673145 -s 9 -d 9 -p cbr -e 512 -c 2 -a 0 -i 32 -k AGT
+ -t 16.250787801 -s 0 -d -1 -p cbr -e 512 -c 2 -a 0 -i 33 -k AGT 
- -t 16.250787801 -s 0 -d -1 -p cbr -e 512 -c 2 -a 0 -i 33 -k AGT
h -t 16.250787801 -s 0 -d -1 -p cbr -e 512 -c 2 -a 0 -i 33 -k AGT
+ -t 16.250787801 -s 0 -d 1 -p cbr -e 532 -c 2 -a 0 -i 33 -k RTR 
- -t 16.250787801 -s 0 -d 1 -p cbr -e 532 -c 2 -a 0 -i 33 -k RTR
h -t 16.250787801 -s 0 -d 1 -p cbr -e 532 -c 2 -a 0 -i 33 -k RTR
+ -t 16.256657801 -s 1 -d 5 -p cbr -e 532 -c 2 -a 0 -i 33 -k RTR 
- -t 16.256657801 -s 1 -d 5 -p cbr -e 532 -c 2 -a 0 -i 33 -k RTR
h -t 16.256657801 -s 1 -d 5 -p cbr -e 532 -c 2 -a 0 -i 33 -k RTR
+ -t 16.262971801 -s 5 -d 9 -p cbr -e 532 -c 2 -a 0 -i 33 -k RTR 
- -t 16.262971801 -s 5 -d 9 -p cbr -e 532 -c 2 -a 0 -i 33 -k RTR
h -t 16.262971801 -s 5 -d 9 -p cbr -e 532 -c 2 -a 0 -i 33 -k RTR
r -t 16.269285801 -s 9 -d 9 -p cbr -e 512 -c 2 -a 0 -i 33 -k AGT
+ -t 16.303061752 -s 0 -d -1 -p cbr -e 512 -c 2 -a 0 -i 34 -k AGT 
- -t 16.303061752 -s 0 -d -1 -p cbr -e 512 -c 2 -a 0 -i 34 -k AGT
h -t 16.303061752 -s 0 -d -1 -p cbr -e 512 -c 2 -a 0 -i 34 -k AGT
+ -t 16.303061752 -s 0 -d 1 -p cbr -e 532 -c 2 -a 0 -i 34 -k RTR 
- -t 16.303061752 -s 0 -d 1 -p cbr -e 532 -c 2 -a 0 -i 34 -k RTR
h -t 16.303061752 -s 0 -d 1 -p cbr -e 532 -c 2 -a 0 -i 34 -k RTR
+ -t 16.309031752 -s 1 -d 5 -p cbr -e 532 -c 2 -a 0 -i 34 -k RTR 
- -t 16.309031752 -s 1 -d 5 -p cbr -e 532 -c 2 -a 0 -i 34 -k RTR
h -t 16.309031752 -s 1 -d 5 -p cbr -e 532 -c 2 -a 0 -i 34 -k RTR
+ -t 16.314765752 -s 5 -d 9 -p cbr -e 532 -c 2 -a 0 -i 34 -k RTR 
- -t 16.314765752 -s 5 -d 9 -p cbr -e 532 -c 2 -a 0 -i 34 -k RTR
h -t 16.314765752 -s 5 -d 9 -p cbr -e 532 -c 2 -a 0 -i 34 -k RTR
r -t 16.320859752 -s 9 -d 9 -p cbr -e 512 -c 2 -a 0 -i 34 -k AGT
+ -t 16.370452759 -s 0 -d -1 -p cbr -e 512 -c 2 -a 0 -i 35 -k AGT 
- -t 16.370452759 -s 0 -d -1 -p cbr -e 512 -c 2 -a 0 -i 35 -k AGT
h -t 16.370452759 -s 0 -d -1 -p cbr -e 512 -c 2 -a 0 -i 35 -k AGT
+ -t 16.370452759 -s 0 -d 1 -p cbr -e 532 -c 2 -a 0 -i 35 -k RTR 
- -t 16.370452759 -s 0 -d 1 -p cbr -e 532 -c 2 -a 0 -i 35 -k RTR
h -t 16.370452759 -s 0 -d 1 -p cbr -e 532 -c 2 -a 0 -i 35 -k RTR
+ -t 16.376422759 -s 1 -d 5 -p cbr -e 532 -c 2 -a 0 -i 35 -k RTR 
- -t 16.376422759 -s 1 -d 5 -p cbr -e 532 -c 2 -a 0 -i 35 -k RTR
h -t 16.376422759 -s 1 -d 5 -p cbr -e 532 -c 2 -a 0 -i 35 -k RTR
+ -t 16.382576759 -s 5 -d 9 -p cbr -e 532 -c 2 -a 0 -i 35 -k RTR 
- -t 16.382576759 -s 5 -d 9 -p cbr -e 532 -c 2 -a 0 -i 35 -k RTR
h -t 16.382576759 -s 5 -d 9 -p cbr -e 532 -c 2 -a 0 -i 35 -k RTR
r -t 16.388670759 -s 9 -d 9 -p cbr -e 512 -c 2 -a 0 -i 35 -k AGT
+ -t 16.399037920 -s 0 -d -1 -p cbr -e 512 -c 2 -a 0 -i 36 -k AGT 
- -t 16.399037920 -s 0 -d -1 -p cbr -e 512 -c 2 -a 0 -i 36 -k AGT
h -t 16.399037920 -s 0 -d -1 -p cbr -e 512 -c 2 -a 0 -i 36 -k AGT
+ -t 16.399037920 -s 0 -d 1 -p cbr -e 532 -c 2 -a 0 -i 36 -k RTR 
- -t 16.399037920 -s 0 -d 1 -p cbr -e 532 -c 2 -a 0 -i 36 -k RTR
h -t 16.399037920 -s 0 -d 1 -p cbr -e 532 -c 2 -a 0 -i 36 -k RTR
+ -t 16.404807920 -s 1 -d 5 -p cbr -e 532 -c 2 -a 0 -i 36 -k RTR 
- -t 16.404807920 -s 1 -d 5 -p cbr -e 532 -c 2 -a 0 -i 36 -k RTR
h -t 16.404807920 -s 1 -d 5 -p cbr -e 532 -c 2 -a 0 -i 36 -k RTR