Sconfig 0.00000 tap: on snoop: rts? on errs? on
Sconfig 0.00000 salvage: on !bd replies? on
Sconfig 0.00000 grat error: on grat reply: on
Sconfig 0.00000 $reply for props: on ring 0 search: on
Sconfig 0.00000 using MOBICACHE
s 15.000000000 _0_ AGT  --- 0 cbr 512 [0 0 0 0] ------- [0:0 9:0 32 0] [0] 0 0
r 15.000000000 _0_ RTR  --- 0 cbr 512 [0 0 0 0] ------- [0:0 9:0 32 0] [0] 0 0
s 15.006049459 _0_ RTR  --- 1 DSR 32 [0 0 0 0] ------- [0:255 9:255 32 0] 1 [1 1] [0 1 0 0->0] [0 0 0 0->0]
r 15.007121931 _3_ RTR  --- 1 DSR 32 [0 ffffffff 0 800] ------- [0:255 9:255 32 0] 1 [1 1] [0 1 0 0->0] [0 0 0 0->0]
r 15.007122126 _1_ RTR  --- 1 DSR 32 [0 ffffffff 0 800] ------- [0:255 9:255 32 0] 1 [1 1] [0 1 0 0->0] [0 0 0 0->0]
s 15.047244065 _0_ RTR  --- 3 DSR 32 [0 0 0 0] ------- [0:255 9:255 32 0] 1 [1 2] [0 2 0 0->16] [0 0 0 0->0]
r 15.048516537 _3_ RTR  --- 3 DSR 32 [0 ffffffff 0 800] ------- [0:255 9:255 32 0] 1 [1 2] [0 2 0 0->16] [0 0 0 0->0]
r 15.048516732 _1_ RTR  --- 3 DSR 32 [0 ffffffff 0 800] ------- [0:255 9:255 32 0] 1 [1 2] [0 2 0 0->16] [0 0 0 0->0]
f 15.051654155 _1_ RTR  --- 3 DSR 48 [0 ffffffff 0 800] ------- [0:255 9:255 32 0] 2 [1 2] [0 2 0 0->16] [0 0 0 0->0]
r 15.052614626 _3_ RTR  --- 3 DSR 48 [0 ffffffff 1 800] ------- [0:255 9:255 32 0] 2 [1 2] [0 2 0 0->16] [0 0 0 0->0]
r 15.052614626 _4_ RTR  --- 3 DSR 48 [0 ffffffff 1 800] ------- [0:255 9:255 32 0] 2 [1 2] [0 2 0 0->16] [0 0 0 0->0]
r 15.052614822 _0_ RTR  --- 3 DSR 48 [0 ffffffff 1 800] ------- [0:255 9:255 32 0] 2 [1 2] [0 2 0 0->16] [0 0 0 0->0]
r 15.052614822 _5_ RTR  --- 3 DSR 48 [0 ffffffff 1 800] ------- [0:255 9:255 32 0] 2 [1 2] [0 2 0 0->16] [0 0 0 0->0]
r 15.052614822 _2_ RTR  --- 3 DSR 48 [0 ffffffff 1 800] ------- [0:255 9:255 32 0] 2 [1 2] [0 2 0 0->16] [0 0 0 0->0]
f 15.053775503 _3_ RTR  --- 3 DSR 48 [0 ffffffff 0 800] ------- [0:255 9:255 32 0] 2 [1 2] [0 2 0 0->16] [0 0 0 0->0]
f 15.054266157 _5_ RTR  --- 3 DSR 68 [0 ffffffff 1 800] ------- [0:255 9:255 32 0] 3 [1 2] [0 2 0 0->16] [0 0 0 0->0]
f 15.054683694 _2_ RTR  --- 3 DSR 68 [0 ffffffff 1 800] ------- [0:255 9:255 32 0] 3 [1 2] [0 2 0 0->16] [0 0 0 0->0]
r 15.054835974 _0_ RTR  --- 3 DSR 48 [0 ffffffff 3 800] ------- [0:255 9:255 32 0] 2 [1 2] [0 2 0 0->16] [0 0 0 0->0]
r 15.054835974 _1_ RTR  --- 3 DSR 48 [0 ffffffff 3 800] ------- [0:255 9:255 32 0] 2 [1 2] [0 2 0 0->16] [0 0 0 0->0]
r 15.054835974 _5_ RTR  --- 3 DSR 48 [0 ffffffff 3 800] ------- [0:255 9:255 32 0] 2 [1 2] [0 2 0 0->16] [0 0 0 0->0]
r 15.054836169 _6_ RTR  --- 3 DSR 48 [0 ffffffff 3 800] ------- [0:255 9:255 32 0] 2 [1 2] [0 2 0 0->16] [0 0 0 0->0]
r 15.054836169 _4_ RTR  --- 3 DSR 48 [0 ffffffff 3 800] ------- [0:255 9:255 32 0] 2 [1 2] [0 2 0 0->16] [0 0 0 0->0]
r 15.055866446 _6_ RTR  --- 3 DSR 68 [0 ffffffff 5 800] ------- [0:255 9:255 32 0] 3 [1 2] [0 2 0 0->16] [0 0 0 0->0]
r 15.055866446 _3_ RTR  --- 3 DSR 68 [0 ffffffff 5 800] ------- [0:255 9:255 32 0] 3 [1 2] [0 2 0 0->16] [0 0 0 0->0]
r 15.055866446 _4_ RTR  --- 3 DSR 68 [0 ffffffff 5 800] ------- [0:255 9:255 32 0] 3 [1 2] [0 2 0 0->16] [0 0 0 0->0]
r 15.055866446 _7_ RTR  --- 3 DSR 68 [0 ffffffff 5 800] ------- [0:255 9:255 32 0] 3 [1 2] [0 2 0 0->16] [0 0 0 0->0]
r 15.055866641 _1_ RTR  --- 3 DSR 68 [0 ffffffff 5 800] ------- [0:255 9:255 32 0] 3 [1 2] [0 2 0 0->16] [0 0 0 0->0]
r 15.055866641 _9_ RTR  --- 3 DSR 68 [0 ffffffff 5 800] ------- [0:255 9:255 32 0] 3 [1 2] [0 2 0 0->16] [0 0 0 0->0]
f 15.056841652 _7_ RTR  --- 3 DSR 92 [0 ffffffff 5 800] ------- [0:255 9:255 32 0] 4 [1 2] [0 2 0 0->16] [0 0 0 0->0]
f 15.057160028 _6_ RTR  --- 3 DSR 68 [0 ffffffff 3 800] ------- [0:255 9:255 32 0] 3 [1 2] [0 2 0 0->16] [0 0 0 0->0]
r 15.057761388 _4_ RTR  --- 3 DSR 68 [0 ffffffff 2 800] ------- [0:255 9:255 32 0] 3 [1 2] [0 2 0 0->16] [0 0 0 0->0]
r 15.057761584 _1_ RTR  --- 3 DSR 68 [0 ffffffff 2 800] ------- [0:255 9:255 32 0] 3 [1 2] [0 2 0 0->16] [0 0 0 0->0]
f 15.057841485 _4_ RTR  --- 3 DSR 68 [0 ffffffff 1 800] ------- [0:255 9:255 32 0] 3 [1 2] [0 2 0 0->16] [0 0 0 0->0]
r 15.059381956 _5_ RTR  --- 3 DSR 68 [0 ffffffff 4 800] ------- [0:255 9:255 32 0] 3 [1 2] [0 2 0 0->16] [0 0 0 0->0]
r 15.059381956 _1_ RTR  --- 3 DSR 68 [0 ffffffff 4 800] ------- [0:255 9:255 32 0] 3 [1 2] [0 2 0 0->16] [0 0 0 0->0]
r 15.059381956 _2_ RTR  --- 3 DSR 68 [0 ffffffff 4 800] ------- [0:255 9:255 32 0] 3 [1 2] [0 2 0 0->16] [0 0 0 0->0]
r 15.059382151 _3_ RTR  --- 3 DSR 68 [0 ffffffff 4 800] ------- [0:255 9:255 32 0] 3 [1 2] [0 2 0 0->16] [0 0 0 0->0]
r 15.059382151 _7_ RTR  --- 3 DSR 68 [0 ffffffff 4 800] ------- [0:255 9:255 32 0] 3 [1 2] [0 2 0 0->16] [0 0 0 0->0]
r 15.060944623 _9_ RTR  --- 3 DSR 92 [0 ffffffff 7 800] ------- [0:255 9:255 32 0] 4 [1 2] [0 2 0 0->16] [0 0 0 0->0]
r 15.060944623 _5_ RTR  --- 3 DSR 92 [0 ffffffff 7 800] ------- [0:255 9:255 32 0] 4 [1 2] [0 2 0 0->16] [0 0 0 0->0]
r 15.060944623 _10_ RTR  --- 3 DSR 92 [0 ffffffff 7 800] ------- [0:255 9:255 32 0] 4 [1 2] [0 2 0 0->16] [0 0 0 0->0]
r 15.060944818 _4_ RTR  --- 3 DSR 92 [0 ffffffff 7 800] ------- [0:255 9:255 32 0] 4 [1 2] [0 2 0 0->16] [0 0 0 0->0]
r 15.060944818 _6_ RTR  --- 3 DSR 92 [0 ffffffff 7 800] ------- [0:255 9:255 32 0] 4 [1 2] [0 2 0 0->16] [0 0 0 0->0]
r 15.062035290 _8_ RTR  --- 3 DSR 68 [0 ffffffff 6 800] ------- [0:255 9:255 32 0] 3 [1 2] [0 2 0 0->16] [0 0 0 0->0]
r 15.062035290 _5_ RTR  --- 3 DSR 68 [0 ffffffff 6 800] ------- [0:255 9:255 32 0] 3 [1 2] [0 2 0 0->16] [0 0 0 0->0]
r 15.062035290 _9_ RTR  --- 3 DSR 68 [0 ffffffff 6 800] ------- [0:255 9:255 32 0] 3 [1 2] [0 2 0 0->16] [0 0 0 0->0]
r 15.062035485 _3_ RTR  --- 3 DSR 68 [0 ffffffff 6 800] ------- [0:255 9:255 32 0] 3 [1 2] [0 2 0 0->16] [0 0 0 0->0]
r 15.062035485 _7_ RTR  --- 3 DSR 68 [0 ffffffff 6 800] ------- [0:255 9:255 32 0] 3 [1 2] [0 2 0 0->16] [0 0 0 0->0]
s 15.062887858 _9_ RTR  --- 4 DSR 60 [0 0 0 0] ------- [9:255 0:255 254 5] 4 [0 2] [1 2 4 0->9] [0 0 0 0->0]
f 15.064559163 _8_ RTR  --- 3 DSR 92 [0 ffffffff 6 800] ------- [0:255 9:255 32 0] 4 [1 2] [0 2 0 0->16] [0 0 0 0->0]
r 15.064681858 _5_ RTR  --- 4 DSR 60 [13a 5 9 800] ------- [9:255 0:255 254 5] 4 [0 2] [1 2 4 0->9] [0 0 0 0->0]
f 15.064681858 _5_ RTR  --- 4 DSR 60 [13a 5 9 800] ------- [9:255 0:255 253 1] 4 [0 2] [1 2 4 0->9] [0 0 0 0->0]
f 15.065356663 _10_ RTR  --- 3 DSR 120 [0 ffffffff 7 800] ------- [0:255 9:255 32 0] 5 [1 2] [0 2 0 0->16] [0 0 0 0->0]
s 15.066547931 _0_ AGT  --- 7 cbr 512 [0 0 0 0] ------- [0:0 9:0 32 0] [1] 0 0
r 15.066547931 _0_ RTR  --- 7 cbr 512 [0 0 0 0] ------- [0:0 9:0 32 0] [1] 0 0
r 15.066839858 _1_ RTR  --- 4 DSR 60 [13a 1 5 800] ------- [9:255 0:255 253 1] 4 [0 2] [1 2 4 0->9] [0 0 0 0->0]
f 15.066839858 _1_ RTR  --- 4 DSR 60 [13a 1 5 800] ------- [9:255 0:255 252 0] 4 [0 2] [1 2 4 0->9] [0 0 0 0->0]
s 15.067070030 _9_ RTR  --- 6 DSR 60 [0 0 0 0] ------- [9:255 0:255 254 6] 4 [0 2] [1 2 4 0->9] [0 0 0 0->0]
r 15.068957858 _0_ RTR  --- 4 DSR 60 [13a 0 1 800] ------- [9:255 0:255 252 0] 4 [0 2] [1 2 4 0->9] [0 0 0 0->0]
SFESTs 15.068957858 _0_ 0 [0 -> 9] 1(1) to 1 [0 |1 5 9 ]
SFESTs 15.068957858 _0_ 7 [0 -> 9] 1(1) to 1 [0 |1 5 9 ]
s 15.068957858 _0_ RTR  --- 0 cbr 556 [0 0 0 0] ------- [0:0 9:0 32 1] [0] 0 0
s 15.069670531 _9_ RTR  --- 5 DSR 68 [0 0 0 0] ------- [9:255 0:255 254 7] 5 [0 2] [1 2 5 0->9] [0 0 0 0->0]
r 15.072861663 _6_ RTR  --- 3 DSR 92 [0 ffffffff 8 800] ------- [0:255 9:255 32 0] 4 [1 2] [0 2 0 0->16] [0 0 0 0->0]
r 15.072861858 _9_ RTR  --- 3 DSR 92 [0 ffffffff 8 800] ------- [0:255 9:255 32 0] 4 [1 2] [0 2 0 0->16] [0 0 0 0->0]
r 15.074525272 _6_ RTR  --- 6 DSR 60 [13a 6 9 800] ------- [9:255 0:255 254 6] 4 [0 2] [1 2 4 0->9] [0 0 0 0->0]
f 15.074525272 _6_ RTR  --- 6 DSR 60 [13a 6 9 800] ------- [9:255 0:255 253 3] 4 [0 2] [1 2 4 0->9] [0 0 0 0->0]
s 15.075090435 _9_ RTR  --- 9 DSR 68 [0 0 0 0] ------- [9:255 0:255 254 8] 5 [0 2] [1 2 5 0->9] [0 0 0 0->0]
r 15.076787158 _7_ RTR  --- 5 DSR 68 [13a 7 9 800] ------- [9:255 0:255 254 7] 5 [0 2] [1 2 5 0->9] [0 0 0 0->0]
f 15.076787158 _7_ RTR  --- 5 DSR 68 [13a 7 9 800] ------- [9:255 0:255 253 5] 5 [0 2] [1 2 5 0->9] [0 0 0 0->0]
r 15.078828572 _5_ RTR  --- 5 DSR 68 [13a 5 7 800] ------- [9:255 0:255 253 5] 5 [0 2] [1 2 5 0->9] [0 0 0 0->0]
f 15.078828572 _5_ RTR  --- 5 DSR 68 [13a 5 7 800] ------- [9:255 0:255 252 1] 5 [0 2] [1 2 5 0->9] [0 0 0 0->0]
r 15.080931239 _8_ RTR  --- 9 DSR 68 [13a 8 9 800] ------- [9:255 0:255 254 8] 5 [0 2] [1 2 5 0->9] [0 0 0 0->0]
f 15.080931239 _8_ RTR  --- 9 DSR 68 [13a 8 9 800] ------- [9:255 0:255 253 6] 5 [0 2] [1 2 5 0->9] [0 0 0 0->0]
r 15.083069710 _3_ RTR  --- 6 DSR 60 [13a 3 6 800] ------- [9:255 0:255 253 3] 4 [0 2] [1 2 4 0->9] [0 0 0 0->0]
f 15.083069710 _3_ RTR  --- 6 DSR 60 [13a 3 6 800] ------- [9:255 0:255 252 0] 4 [0 2] [1 2 4 0->9] [0 0 0 0->0]
r 15.085212182 _1_ RTR  --- 5 DSR 68 [13a 1 5 800] ------- [9:255 0:255 252 1] 5 [0 2] [1 2 5 0->9] [0 0 0 0->0]
f 15.085212182 _1_ RTR  --- 5 DSR 68 [13a 1 5 800] ------- [9:255 0:255 251 0] 5 [0 2] [1 2 5 0->9] [0 0 0 0->0]
r 15.087570067 _0_ RTR  --- 6 DSR 60 [13a 0 3 800] ------- [9:255 0:255 252 0] 4 [0 2] [1 2 4 0->9] [0 0 0 0->0]
r 15.089692734 _0_ RTR  --- 5 DSR 68 [13a 0 1 800] ------- [9:255 0:255 251 0] 5 [0 2] [1 2 5 0->9] [0 0 0 0->0]
r 15.092259482 _6_ RTR  --- 9 DSR 68 [13a 6 8 800] ------- [9:255 0:255 253 6] 5 [0 2] [1 2 5 0->9] [0 0 0 0->0]
f 15.092259482 _6_ RTR  --- 9 DSR 68 [13a 6 8 800] ------- [9:255 0:255 252 3] 5 [0 2] [1 2 5 0->9] [0 0 0 0->0]
r 15.094461482 _3_ RTR  --- 9 DSR 68 [13a 3 6 800] ------- [9:255 0:255 252 3] 5 [0 2] [1 2 5 0->9] [0 0 0 0->0]
f 15.094461482 _3_ RTR  --- 9 DSR 68 [13a 3 6 800] ------- [9:255 0:255 251 0] 5 [0 2] [1 2 5 0->9] [0 0 0 0->0]
r 15.096482896 _0_ RTR  --- 9 DSR 68 [13a 0 3 800] ------- [9:255 0:255 251 0] 5 [0 2] [1 2 5 0->9] [0 0 0 0->0]
s 15.098957858 _0_ RTR  --- 7 cbr 556 [0 0 0 0] ------- [0:0 9:0 32 1] [1] 0 0
r 15.103208896 _1_ RTR  --- 0 cbr 556 [13a 1 0 800] ------- [0:0 9:0 32 1] [0] 1 0
f 15.103208896 _1_ RTR  --- 0 cbr 556 [13a 1 0 800] ------- [0:0 9:0 31 5] [0] 1 0
r 15.109574896 _5_ RTR  --- 0 cbr 556 [13a 5 1 800] ------- [0:0 9:0 31 5] [0] 2 0
f 15.109574896 _5_ RTR  --- 0 cbr 556 [13a 5 1 800] ------- [0:0 9:0 30 9] [0] 2 0
r 15.115720896 _9_ RTR  --- 0 cbr 556 [13a 9 5 800] ------- [0:0 9:0 30 9] [0] 3 0
r 15.115720896 _9_ AGT  --- 0 cbr 512 [13a 9 5 800] ------- [0:0 9:0 30 9] [0] 3 0
s 15.116165357 _0_ AGT  --- 10 cbr 512 [0 0 0 0] ------- [0:0 9:0 32 0] [2] 0 0
r 15.116165357 _0_ RTR  --- 10 cbr 512 [0 0 0 0] ------- [0:0 9:0 32 0] [2] 0 0
SFESTs 15.116165357 _0_ 10 [0 -> 9] 1(1) to 1 [0 |1 5 9 ]
s 15.116165357 _0_ RTR  --- 10 cbr 556 [0 0 0 0] ------- [0:0 9:0 32 1] [2] 0 0
r 15.122032387 _1_ RTR  --- 7 cbr 556 [13a 1 0 800] ------- [0:0 9:0 32 1] [1] 1 0
f 15.122032387 _1_ RTR  --- 7 cbr 556 [13a 1 0 800] ------- [0:0 9:0 31 5] [1] 1 0
r 15.128258387 _5_ RTR  --- 7 cbr 556 [13a 5 1 800] ------- [0:0 9:0 31 5] [1] 2 0
f 15.128258387 _5_ RTR  --- 7 cbr 556 [13a 5 1 800] ------- [0:0 9:0 30 9] [1] 2 0
r 15.134264387 _9_ RTR  --- 7 cbr 556 [13a 9 5 800] ------- [0:0 9:0 30 9] [1] 3 0
r 15.134264387 _9_ AGT  --- 7 cbr 512 [13a 9 5 800] ------- [0:0 9:0 30 9] [1] 3 0
r 15.140735877 _1_ RTR  --- 10 cbr 556 [13a 1 0 800] ------- [0:0 9:0 32 1] [2] 1 0
f 15.140735877 _1_ RTR  --- 10 cbr 556 [13a 1 0 800] ------- [0:0 9:0 31 5] [2] 1 0
s 15.144801287 _0_ AGT  --- 11 cbr 512 [0 0 0 0] ------- [0:0 9:0 32 0] [3] 0 0
r 15.144801287 _0_ RTR  --- 11 cbr 512 [0 0 0 0] ------- [0:0 9:0 32 0] [3] 0 0
SFs 15.144801287 _0_ 11 [0 -> 9] 1(0) to 1 
s 15.144801287 _0_ RTR  --- 11 cbr 532 [0 0 0 0] ------- [0:0 9:0 32 1] [3] 0 0
r 15.146721877 _5_ RTR  --- 10 cbr 556 [13a 5 1 800] ------- [0:0 9:0 31 5] [2] 2 0
f 15.146721877 _5_ RTR  --- 10 cbr 556 [13a 5 1 800] ------- [0:0 9:0 30 9] [2] 2 0
r 15.153067877 _9_ RTR  --- 10 cbr 556 [13a 9 5 800] ------- [0:0 9:0 30 9] [2] 3 0
r 15.153067877 _9_ AGT  --- 10 cbr 512 [13a 9 5 800] ------- [0:0 9:0 30 9] [2] 3 0
r 15.159267368 _1_ RTR  --- 11 cbr 532 [13a 1 0 800] ------- [0:0 9:0 32 1] [3] 1 0
SFf 15.159267368 _1_ 11 [0 -> 9] 1 to 5
f 15.159267368 _1_ RTR  --- 11 cbr 532 [13a 1 0 800] ------- [0:0 9:0 31 5] [3] 1 0
r 15.165121368 _5_ RTR  --- 11 cbr 532 [13a 5 1 800] ------- [0:0 9:0 31 5] [3] 2 0
SFf 15.165121368 _5_ 11 [0 -> 9] 1 to 9
f 15.165121368 _5_ RTR  --- 11 cbr 532 [13a 5 1 800] ------- [0:0 9:0 30 9] [3] 2 0
r 15.171115368 _9_ RTR  --- 11 cbr 532 [13a 9 5 800] ------- [0:0 9:0 30 9] [3] 3 0
r 15.171115368 _9_ AGT  --- 11 cbr 512 [13a 9 5 800] ------- [0:0 9:0 30 9] [3] 3 0
s 15.199352926 _0_ AGT  --- 12 cbr 512 [0 0 0 0] ------- [0:0 9:0 32 0] [4] 0 0
r 15.199352926 _0_ RTR  --- 12 cbr 512 [0 0 0 0] ------- [0:0 9:0 32 0] [4] 0 0
SFs 15.199352926 _0_ 12 [0 -> 9] 1(0) to 1 
s 15.199352926 _0_ RTR  --- 12 cbr 532 [0 0 0 0] ------- [0:0 9:0 32 1] [4] 0 0
r 15.205362926 _1_ RTR  --- 12 cbr 532 [13a 1 0 800] ------- [0:0 9:0 32 1] [4] 1 0
SFf 15.205362926 _1_ 12 [0 -> 9] 1 to 5
f 15.205362926 _1_ RTR  --- 12 cbr 532 [13a 1 0 800] ------- [0:0 9:0 31 5] [4] 1 0
r 15.211196926 _5_ RTR  --- 12 cbr 532 [13a 5 1 800] ------- [0:0 9:0 31 5] [4] 2 0
SFf 15.211196926 _5_ 12 [0 -> 9] 1 to 9
f 15.211196926 _5_ RTR  --- 12 cbr 532 [13a 5 1 800] ------- [0:0 9:0 30 9] [4] 2 0
r 15.217310926 _9_ RTR  --- 12 cbr 532 [13a 9 5 800] ------- [0:0 9:0 30 9] [4] 3 0
r 15.217310926 _9_ AGT  --- 12 cbr 512 [13a 9 5 800] ------- [0:0 9:0 30 9] [4] 3 0
s 15.252968028 _0_ AGT  --- 13 cbr 512 [0 0 0 0] ------- [0:0 9:0 32 0] [5] 0 0
r 15.252968028 _0_ RTR  --- 13 cbr 512 [0 0 0 0] ------- [0:0 9:0 32 0] [5] 0 0
SFs 15.252968028 _0_ 13 [0 -> 9] 1(0) to 1 
s 15.252968028 _0_ RTR  --- 13 cbr 532 [0 0 0 0] ------- [0:0 9:0 32 1] [5] 0 0
r 15.258758028 _1_ RTR  --- 13 cbr 532 [13a 1 0 800] ------- [0:0 9:0 32 1] [5] 1 0
SFf 15.258758028 _1_ 13 [0 -> 9] 1 to 5
f 15.258758028 _1_ RTR  --- 13 cbr 532 [13a 1 0 800] ------- [0:0 9:0 31 5] [5] 1 0
r 15.264792028 _5_ RTR  --- 13 cbr 532 [13a 5 1 800] ------- [0:0 9:0 31 5] [5] 2 0
SFf 15.264792028 _5_ 13 [0 -> 9] 1 to 9
f 15.264792028 _5_ RTR  --- 13 cbr 532 [13a 5 1 800] ------- [0:0 9:0 30 9] [5] 2 0
r 15.271046028 _9_ RTR  --- 13 cbr 532 [13a 9 5 800] ------- [0:0 9:0 30 9] [5] 3 0
r 15.271046028 _9_ AGT  --- 13 cbr 512 [13a 9 5 800] ------- [0:0 9:0 30 9] [5] 3 0
s 15.297416196 _0_ AGT  --- 14 cbr 512 [0 0 0 0] ------- [0:0 9:0 32 0] [6] 0 0
r 15.297416196 _0_ RTR  --- 14 cbr 512 [0 0 0 0] ------- [0:0 9:0 32 0] [6] 0 0
SFs 15.297416196 _0_ 14 [0 -> 9] 1(0) to 1 
s 15.297416196 _0_ RTR  --- 14 cbr 532 [0 0 0 0] ------- [0:0 9:0 32 1] [6] 0 0
r 15.302986196 _1_ RTR  --- 14 cbr 532 [13a 1 0 800] ------- [0:0 9:0 32 1] [6] 1 0
SFf 15.302986196 _1_ 14 [0 -> 9] 1 to 5
f 15.302986196 _1_ RTR  --- 14 cbr 532 [13a 1 0 800] ------- [0:0 9:0 31 5] [6] 1 0
r 15.308720196 _5_ RTR  --- 14 cbr 532 [13a 5 1 800] ------- [0:0 9:0 31 5] [6] 2 0
SFf 15.308720196 _5_ 14 [0 -> 9] 1 to 9
f 15.308720196 _5_ RTR  --- 14 cbr 532 [13a 5 1 800] ------- [0:0 9:0 30 9] [6] 2 0
r 15.314754196 _9_ RTR  --- 14 cbr 532 [13a 9 5 800] ------- [0:0 9:0 30 9] [6] 3 0
r 15.314754196 _9_ AGT  --- 14 cbr 512 [13a 9 5 800] ------- [0:0 9:0 30 9] [6] 3 0
s 15.361995780 _0_ AGT  --- 15 cbr 512 [0 0 0 0] ------- [0:0 9:0 32 0] [7] 0 0
r 15.361995780 _0_ RTR  --- 15 cbr 512 [0 0 0 0] ------- [0:0 9:0 32 0] [7] 0 0
SFs 15.361995780 _0_ 15 [0 -> 9] 1(0) to 1 
s 15.361995780 _0_ RTR  --- 15 cbr 532 [0 0 0 0] ------- [0:0 9:0 32 1] [7] 0 0
r 15.367605780 _1_ RTR  --- 15 cbr 532 [13a 1 0 800] ------- [0:0 9:0 32 1] [7] 1 0
SFf 15.367605780 _1_ 15 [0 -> 9] 1 to 5
f 15.367605780 _1_ RTR  --- 15 cbr 532 [13a 1 0 800] ------- [0:0 9:0 31 5] [7] 1 0
r 15.373719780 _5_ RTR  --- 15 cbr 532 [13a 5 1 800] ------- [0:0 9:0 31 5] [7] 2 0
SFf 15.373719780 _5_ 15 [0 -> 9] 1 to 9
f 15.373719780 _5_ RTR  --- 15 cbr 532 [13a 5 1 800] ------- [0:0 9:0 30 9] [7] 2 0
r 15.379533780 _9_ RTR  --- 15 cbr 532 [13a 9 5 800] ------- [0:0 9:0 30 9] [7] 3 0
r 15.379533780 _9_ AGT  --- 15 cbr 512 [13a 9 5 800] ------- [0:0 9:0 30 9] [7] 3 0
s 15.414106859 _0_ AGT  --- 16 cbr 512 [0 0 0 0] ------- [0:0 9:0 32 0] [8] 0 0
r 15.414106859 _0_ RTR  --- 16 cbr 512 [0 0 0 0] ------- [0:0 9:0 32 0] [8] 0 0
SFs 15.414106859 _0_ 16 [0 -> 9] 1(0) to 1 
s 15.414106859 _0_ RTR  --- 16 cbr 532 [0 0 0 0] ------- [0:0 9:0 32 1] [8] 0 0
r 15.419776859 _1_ RTR  --- 16 cbr 532 [13a 1 0 800] ------- [0:0 9:0 32 1] [8] 1 0
SFf 15.419776859 _1_ 16 [0 -> 9] 1 to 5
f 15.419776859 _1_ RTR  --- 16 cbr 532 [13a 1 0 800] ------- [0:0 9:0 31 5] [8] 1 0
r 15.425970859 _5_ RTR  --- 16 cbr 532 [13a 5 1 800] ------- [0:0 9:0 31 5] [8] 2 0
SFf 15.425970859 _5_ 16 [0 -> 9] 1 to 9
f 15.425970859 _5_ RTR  --- 16 cbr 532 [13a 5 1 800] ------- [0:0 9:0 30 9] [8] 2 0
r 15.432164859 _9_ RTR  --- 16 cbr 532 [13a 9 5 800] ------- [0:0 9:0 30 9] [8] 3 0
r 15.432164859 _9_ AGT  --- 16 cbr 512 [13a 9 5 800] ------- [0:0 9:0 30 9] [8] 3 0
s 15.452599158 _0_ AGT  --- 17 cbr 512 [0 0 0 0] ------- [0:0 9:0 32 0] [9] 0 0
r 15.452599158 _0_ RTR  --- 17 cbr 512 [0 0 0 0] ------- [0:0 9:0 32 0] [9] 0 0
SFs 15.452599158 _0_ 17 [0 -> 9] 1(0) to 1 
s 15.452599158 _0_ RTR  --- 17 cbr 532 [0 0 0 0] ------- [0:0 9:0 32 1] [9] 0 0
r 15.458189158 _1_ RTR  --- 17 cbr 532 [13a 1 0 800] ------- [0:0 9:0 32 1] [9] 1 0
SFf 15.458189158 _1_ 17 [0 -> 9] 1 to 5
f 15.458189158 _1_ RTR  --- 17 cbr 532 [13a 1 0 800] ------- [0:0 9:0 31 5] [9] 1 0
r 15.464083158 _5_ RTR  --- 17 cbr 532 [13a 5 1 800] ------- [0:0 9:0 31 5] [9] 2 0
SFf 15.464083158 _5_ 17 [0 -> 9] 1 to 9
f 15.464083158 _5_ RTR  --- 17 cbr 532 [13a 5 1 800] ------- [0:0 9:0 30 9] [9] 2 0
r 15.469897158 _9_ RTR  --- 17 cbr 532 [13a 9 5 800] ------- [0:0 9:0 30 9] [9] 3 0
r 15.469897158 _9_ AGT  --- 17 cbr 512 [13a 9 5 800] ------- [0:0 9:0 30 9] [9] 3 0
s 15.514579062 _0_ AGT  --- 18 cbr 512 [0 0 0 0] ------- [0:0 9:0 32 0] [10] 0 0
r 15.514579062 _0_ RTR  --- 18 cbr 512 [0 0 0 0] ------- [0:0 9:0 32 0] [10] 0 0
SFs 15.514579062 _0_ 18 [0 -> 9] 1(0) to 1 
s 15.514579062 _0_ RTR  --- 18 cbr 532 [0 0 0 0] ------- [0:0 9:0 32 1] [10] 0 0
r 15.520169062 _1_ RTR  --- 18 cbr 532 [13a 1 0 800] ------- [0:0 9:0 32 1] [10] 1 0
SFf 15.520169062 _1_ 18 [0 -> 9] 1 to 5
f 15.520169062 _1_ RTR  --- 18 cbr 532 [13a 1 0 800] ------- [0:0 9:0 31 5] [10] 1 0
r 15.526363062 _5_ RTR  --- 18 cbr 532 [13a 5 1 800] ------- [0:0 9:0 31 5] [10] 2 0
SFf 15.526363062 _5_ 18 [0 -> 9] 1 to 9
f 15.526363062 _5_ RTR  --- 18 cbr 532 [13a 5 1 800] ------- [0:0 9:0 30 9] [10] 2 0
r 15.532457062 _9_ RTR  --- 18 cbr 532 [13a 9 5 800] ------- [0:0 9:0 30 9] [10] 3 0
r 15.532457062 _9_ AGT  --- 18 cbr 512 [13a 9 5 800] ------- [0:0 9:0 30 9] [10] 3 0
s 15.573451941 _0_ AGT  --- 19 cbr 512 [0 0 0 0] ------- [0:0 9:0 32 0] [11] 0 0
r 15.573451941 _0_ RTR  --- 19 cbr 512 [0 0 0 0] ------- [0:0 9:0 32 0] [11] 0 0
SFs 15.573451941 _0_ 19 [0 -> 9] 1(0) to 1 
s 15.573451941 _0_ RTR  --- 19 cbr 532 [0 0 0 0] ------- [0:0 9:0 32 1] [11] 0 0
r 15.579081941 _1_ RTR  --- 19 cbr 532 [13a 1 0 800] ------- [0:0 9:0 32 1] [11] 1 0
SFf 15.579081941 _1_ 19 [0 -> 9] 1 to 5
f 15.579081941 _1_ RTR  --- 19 cbr 532 [13a 1 0 800] ------- [0:0 9:0 31 5] [11] 1 0
r 15.584875941 _5_ RTR  --- 19 cbr 532 [13a 5 1 800] ------- [0:0 9:0 31 5] [11] 2 0
SFf 15.584875941 _5_ 19 [0 -> 9] 1 to 9
f 15.584875941 _5_ RTR  --- 19 cbr 532 [13a 5 1 800] ------- [0:0 9:0 30 9] [11] 2 0
r 15.590689941 _9_ RTR  --- 19 cbr 532 [13a 9 5 800] ------- [0:0 9:0 30 9] [11] 3 0
r 15.590689941 _9_ AGT  --- 19 cbr 512 [13a 9 5 800] ------- [0:0 9:0 30 9] [11] 3 0
s 15.647915665 _0_ AGT  --- 20 cbr 512 [0 0 0 0] ------- [0:0 9:0 32 0] [12] 0 0
r 15.647915665 _0_ RTR  --- 20 cbr 512 [0 0 0 0] ------- [0:0 9:0 32 0] [12] 0 0
SFs 15.647915665 _0_ 20 [0 -> 9] 1(0) to 1 
s 15.647915665 _0_ RTR  --- 20 cbr 532 [0 0 0 0] ------- [0:0 9:0 32 1] [12] 0 0
r 15.653745665 _1_ RTR  --- 20 cbr 532 [13a 1 0 800] ------- [0:0 9:0 32 1] [12] 1 0
SFf 15.653745665 _1_ 20 [0 -> 9] 1 to 5
f 15.653745665 _1_ RTR  --- 20 cbr 532 [13a 1 0 800] ------- [0:0 9:0 31 5] [12] 1 0
r 15.660039665 _5_ RTR  --- 20 cbr 532 [13a 5 1 800] ------- [0:0 9:0 31 5] [12] 2 0
SFf 15.660039665 _5_ 20 [0 -> 9] 1 to 9
f 15.660039665 _5_ RTR  --- 20 cbr 532 [13a 5 1 800] ------- [0:0 9:0 30 9] [12] 2 0
r 15.666073665 _9_ RTR  --- 20 cbr 532 [13a 9 5 800] ------- [0:0 9:0 30 9] [12] 3 0
r 15.666073665 _9_ AGT  --- 20 cbr 512 [13a 9 5 800] ------- [0:0 9:0 30 9] [12] 3 0
s 15.699327273 _0_ AGT  --- 21 cbr 512 [0 0 0 0] ------- [0:0 9:0 32 0] [13] 0 0
r 15.699327273 _0_ RTR  --- 21 cbr 512 [0 0 0 0] ------- [0:0 9:0 32 0] [13] 0 0
SFs 15.699327273 _0_ 21 [0 -> 9] 1(0) to 1 
s 15.699327273 _0_ RTR  --- 21 cbr 532 [0 0 0 0] ------- [0:0 9:0 32 1] [13] 0 0
r 15.705117273 _1_ RTR  --- 21 cbr 532 [13a 1 0 800] ------- [0:0 9:0 32 1] [13] 1 0
SFf 15.705117273 _1_ 21 [0 -> 9] 1 to 5
f 15.705117273 _1_ RTR  --- 21 cbr 532 [13a 1 0 800] ------- [0:0 9:0 31 5] [13] 1 0
r 15.711031273 _5_ RTR  --- 21 cbr 532 [13a 5 1 800] ------- [0:0 9:0 31 5] [13] 2 0
SFf 15.711031273 _5_ 21 [0 -> 9] 1 to 9
f 15.711031273 _5_ RTR  --- 21 cbr 532 [13a 5 1 800] ------- [0:0 9:0 30 9] [13] 2 0
r 15.717105273 _9_ RTR  --- 21 cbr 532 [13a 9 5 800] ------- [0:0 9:0 30 9] [13] 3 0
r 15.717105273 _9_ AGT  --- 21 cbr 512 [13a 9 5 800] ------- [0:0 9:0 30 9] [13] 3 0
s 15.750174021 _0_ AGT  --- 22 cbr 512 [0 0 0 0] ------- [0:0 9:0 32 0] [14] 0 0
r 15.750174021 _0_ RTR  --- 22 cbr 512 [0 0 0 0] ------- [0:0 9:0 32 0] [14] 0 0
SFs 15.750174021 _0_ 22 [0 -> 9] 1(0) to 1 
s 15.750174021 _0_ RTR  --- 22 cbr 532 [0 0 0 0] ------- [0:0 9:0 32 1] [14] 0 0
r 15.755724021 _1_ RTR  --- 22 cbr 532 [13a 1 0 800] ------- [0:0 9:0 32 1] [14] 1 0
SFf 15.755724021 _1_ 22 [0 -> 9] 1 to 5
f 15.755724021 _1_ RTR  --- 22 cbr 532 [13a 1 0 800] ------- [0:0 9:0 31 5] [14] 1 0
r 15.761558021 _5_ RTR  --- 22 cbr 532 [13a 5 1 800] ------- [0:0 9:0 31 5] [14] 2 0
SFf 15.761558021 _5_ 22 [0 -> 9] 1 to 9
f 15.761558021 _5_ RTR  --- 22 cbr 532 [13a 5 1 800] ------- [0:0 9:0 30 9] [14] 2 0
r 15.767792021 _9_ RTR  --- 22 cbr 532 [13a 9 5 800] ------- [0:0 9:0 30 9] [14] 3 0
r 15.767792021 _9_ AGT  --- 22 cbr 512 [13a 9 5 800] ------- [0:0 9:0 30 9] [14] 3 0
s 15.776556167 _0_ AGT  --- 23 cbr 512 [0 0 0 0] ------- [0:0 9:0 32 0] [15] 0 0
r 15.776556167 _0_ RTR  --- 23 cbr 512 [0 0 0 0] ------- [0:0 9:0 32 0] [15] 0 0
SFs 15.776556167 _0_ 23 [0 -> 9] 1(0) to 1 
s 15.776556167 _0_ RTR  --- 23 cbr 532 [0 0 0 0] ------- [0:0 9:0 32 1] [15] 0 0
r 15.782426167 _1_ RTR  --- 23 cbr 532 [13a 1 0 800] ------- [0:0 9:0 32 1] [15] 1 0
SFf 15.782426167 _1_ 23 [0 -> 9] 1 to 5
f 15.782426167 _1_ RTR  --- 23 cbr 532 [13a 1 0 800] ------- [0:0 9:0 31 5] [15] 1 0
r 15.788380167 _5_ RTR  --- 23 cbr 532 [13a 5 1 800] ------- [0:0 9:0 31 5] [15] 2 0
SFf 15.788380167 _5_ 23 [0 -> 9] 1 to 9
f 15.788380167 _5_ RTR  --- 23 cbr 532 [13a 5 1 800] ------- [0:0 9:0 30 9] [15] 2 0
r 15.794174167 _9_ RTR  --- 23 cbr 532 [13a 9 5 800] ------- [0:0 9:0 30 9] [15] 3 0
r 15.794174167 _9_ AGT  --- 23 cbr 512 [13a 9 5 800] ------- [0:0 9:0 30 9] [15] 3 0
s 15.815596255 _0_ AGT  --- 24 cbr 512 [0 0 0 0] ------- [0:0 9:0 32 0] [16] 0 0
r 15.815596255 _0_ RTR  --- 24 cbr 512 [0 0 0 0] ------- [0:0 9:0 32 0] [16] 0 0
SFs 15.815596255 _0_ 24 [0 -> 9] 1(0) to 1 
s 15.815596255 _0_ RTR  --- 24 cbr 532 [0 0 0 0] ------- [0:0 9:0 32 1] [16] 0 0
r 15.821446255 _1_ RTR  --- 24 cbr 532 [13a 1 0 800] ------- [0:0 9:0 32 1] [16] 1 0
SFf 15.821446255 _1_ 24 [0 -> 9] 1 to 5
f 15.821446255 _1_ RTR  --- 24 cbr 532 [13a 1 0 800] ------- [0:0 9:0 31 5] [16] 1 0
r 15.827520255 _5_ RTR  --- 24 cbr 532 [13a 5 1 800] ------- [0:0 9:0 31 5] [16] 2 0
SFf 15.827520255 _5_ 24 [0 -> 9] 1 to 9
f 15.827520255 _5_ RTR  --- 24 cbr 532 [13a 5 1 800] ------- [0:0 9:0 30 9] [16] 2 0
r 15.833674255 _9_ RTR  --- 24 cbr 532 [13a 9 5 800] ------- [0:0 9:0 30 9] [16] 3 0
r 15.833674255 _9_ AGT  --- 24 cbr 512 [13a 9 5 800] ------- [0:0 9:0 30 9] [16] 3 0
s 15.855287392 _0_ AGT  --- 25 cbr 512 [0 0 0 0] ------- [0:0 9:0 32 0] [17] 0 0
r 15.855287392 _0_ RTR  --- 25 cbr 512 [0 0 0 0] ------- [0:0 9:0 32 0] [17] 0 0
SFs 15.855287392 _0_ 25 [0 -> 9] 1(0) to 1 
s 15.855287392 _0_ RTR  --- 25 cbr 532 [0 0 0 0] ------- [0:0 9:0 32 1] [17] 0 0
r 15.860797392 _1_ RTR  --- 25 cbr 532 [13a 1 0 800] ------- [0:0 9:0 32 1] [17] 1 0
SFf 15.860797392 _1_ 25 [0 -> 9] 1 to 5
f 15.860797392 _1_ RTR  --- 25 cbr 532 [13a 1 0 800] ------- [0:0 9:0 31 5] [17] 1 0
r 15.866531392 _5_ RTR  --- 25 cbr 532 [13a 5 1 800] ------- [0:0 9:0 31 5] [17] 2 0
SFf 15.866531392 _5_ 25 [0 -> 9] 1 to 9
f 15.866531392 _5_ RTR  --- 25 cbr 532 [13a 5 1 800] ------- [0:0 9:0 30 9] [17] 2 0
r 15.872565392 _9_ RTR  --- 25 cbr 532 [13a 9 5 800] ------- [0:0 9:0 30 9] [17] 3 0
r 15.872565392 _9_ AGT  --- 25 cbr 512 [13a 9 5 800] ------- [0:0 9:0 30 9] [17] 3 0
s 15.881477885 _0_ AGT  --- 26 cbr 512 [0 0 0 0] ------- [0:0 9:0 32 0] [18] 0 0
r 15.881477885 _0_ RTR  --- 26 cbr 512 [0 0 0 0] ------- [0:0 9:0 32 0] [18] 0 0
SFs 15.881477885 _0_ 26 [0 -> 9] 1(0) to 1 
s 15.881477885 _0_ RTR  --- 26 cbr 532 [0 0 0 0] ------- [0:0 9:0 32 1] [18] 0 0
r 15.887027885 _1_ RTR  --- 26 cbr 532 [13a 1 0 800] ------- [0:0 9:0 32 1] [18] 1 0
SFf 15.887027885 _1_ 26 [0 -> 9] 1 to 5
f 15.887027885 _1_ RTR  --- 26 cbr 532 [13a 1 0 800] ------- [0:0 9:0 31 5] [18] 1 0
r 15.893201885 _5_ RTR  --- 26 cbr 532 [13a 5 1 800] ------- [0:0 9:0 31 5] [18] 2 0
SFf 15.893201885 _5_ 26 [0 -> 9] 1 to 9
f 15.893201885 _5_ RTR  --- 26 cbr 532 [13a 5 1 800] ------- [0:0 9:0 30 9] [18] 2 0
r 15.899015885 _9_ RTR  --- 26 cbr 532 [13a 9 5 800] ------- [0:0 9:0 30 9] [18] 3 0
r 15.899015885 _9_ AGT  --- 26 cbr 512 [13a 9 5 800] ------- [0:0 9:0 30 9] [18] 3 0
s 15.955502955 _0_ AGT  --- 27 cbr 512 [0 0 0 0] ------- [0:0 9:0 32 0] [19] 0 0
r 15.955502955 _0_ RTR  --- 27 cbr 512 [0 0 0 0] ------- [0:0 9:0 32 0] [19] 0 0
SFs 15.955502955 _0_ 27 [0 -> 9] 1(0) to 1 
s 15.955502955 _0_ RTR  --- 27 cbr 532 [0 0 0 0] ------- [0:0 9:0 32 1] [19] 0 0
r 15.961372955 _1_ RTR  --- 27 cbr 532 [13a 1 0 800] ------- [0:0 9:0 32 1] [19] 1 0
SFf 15.961372955 _1_ 27 [0 -> 9] 1 to 5
f 15.961372955 _1_ RTR  --- 27 cbr 532 [13a 1 0 800] ------- [0:0 9:0 31 5] [19] 1 0
r 15.967126955 _5_ RTR  --- 27 cbr 532 [13a 5 1 800] ------- [0:0 9:0 31 5] [19] 2 0
SFf 15.967126955 _5_ 27 [0 -> 9] 1 to 9
f 15.967126955 _5_ RTR  --- 27 cbr 532 [13a 5 1 800] ------- [0:0 9:0 30 9] [19] 2 0
r 15.972840955 _9_ RTR  --- 27 cbr 532 [13a 9 5 800] ------- [0:0 9:0 30 9] [19] 3 0
r 15.972840955 _9_ AGT  --- 27 cbr 512 [13a 9 5 800] ------- [0:0 9:0 30 9] [19] 3 0
s 16.011782031 _0_ AGT  --- 28 cbr 512 [0 0 0 0] ------- [0:0 9:0 32 0] [20] 0 0
r 16.011782031 _0_ RTR  --- 28 cbr 512 [0 0 0 0] ------- [0:0 9:0 32 0] [20] 0 0
SFs 16.011782031 _0_ 28 [0 -> 9] 1(0) to 1 
s 16.011782031 _0_ RTR  --- 28 cbr 532 [0 0 0 0] ------- [0:0 9:0 32 1] [20] 0 0
r 16.017532031 _1_ RTR  --- 28 cbr 532 [13a 1 0 800] ------- [0:0 9:0 32 1] [20] 1 0
SFf 16.017532031 _1_ 28 [0 -> 9] 1 to 5
f 16.017532031 _1_ RTR  --- 28 cbr 532 [13a 1 0 800] ------- [0:0 9:0 31 5] [20] 1 0
r 16.023406031 _5_ RTR  --- 28 cbr 532 [13a 5 1 800] ------- [0:0 9:0 31 5] [20] 2 0
SFf 16.023406031 _5_ 28 [0 -> 9] 1 to 9
f 16.023406031 _5_ RTR  --- 28 cbr 532 [13a 5 1 800] ------- [0:0 9:0 30 9] [20] 2 0
r 16.029360031 _9_ RTR  --- 28 cbr 532 [13a 9 5 800] ------- [0:0 9:0 30 9] [20] 3 0
r 16.029360031 _9_ AGT  --- 28 cbr 512 [13a 9 5 800] ------- [0:0 9:0 30 9] [20] 3 0
s 16.038140289 _0_ AGT  --- 29 cbr 512 [0 0 0 0] ------- [0:0 9:0 32 0] [21] 0 0
r 16.038140289 _0_ RTR  --- 29 cbr 512 [0 0 0 0] ------- [0:0 9:0 32 0] [21] 0 0
SFs 16.038140289 _0_ 29 [0 -> 9] 1(0) to 1 
s 16.038140289 _0_ RTR  --- 29 cbr 532 [0 0 0 0] ------- [0:0 9:0 32 1] [21] 0 0
r 16.044010289 _1_ RTR  --- 29 cbr 532 [13a 1 0 800] ------- [0:0 9:0 32 1] [21] 1 0
SFf 16.044010289 _1_ 29 [0 -> 9] 1 to 5
f 16.044010289 _1_ RTR  --- 29 cbr 532 [13a 1 0 800] ------- [0:0 9:0 31 5] [21] 1 0
r 16.049864289 _5_ RTR  --- 29 cbr 532 [13a 5 1 800] ------- [0:0 9:0 31 5] [21] 2 0
SFf 16.049864289 _5_ 29 [0 -> 9] 1 to 9
f 16.049864289 _5_ RTR  --- 29 cbr 532 [13a 5 1 800] ------- [0:0 9:0 30 9] [21] 2 0
r 16.055618289 _9_ RTR  --- 29 cbr 532 [13a 9 5 800] ------- [0:0 9:0 30 9] [21] 3 0
r 16.055618289 _9_ AGT  --- 29 cbr 512 [13a 9 5 800] ------- [0:0 9:0 30 9] [21] 3 0
s 16.109939964 _0_ AGT  --- 30 cbr 512 [0 0 0 0] ------- [0:0 9:0 32 0] [22] 0 0
r 16.109939964 _0_ RTR  --- 30 cbr 512 [0 0 0 0] ------- [0:0 9:0 32 0] [22] 0 0
SFs 16.109939964 _0_ 30 [0 -> 9] 1(0) to 1 
s 16.109939964 _0_ RTR  --- 30 cbr 532 [0 0 0 0] ------- [0:0 9:0 32 1] [22] 0 0
r 16.115769964 _1_ RTR  --- 30 cbr 532 [13a 1 0 800] ------- [0:0 9:0 32 1] [22] 1 0
SFf 16.115769964 _1_ 30 [0 -> 9] 1 to 5
f 16.115769964 _1_ RTR  --- 30 cbr 532 [13a 1 0 800] ------- [0:0 9:0 31 5] [22] 1 0
r 16.122083964 _5_ RTR  --- 30 cbr 532 [13a 5 1 800] ------- [0:0 9:0 31 5] [22] 2 0
SFf 16.122083964 _5_ 30 [0 -> 9] 1 to 9
f 16.122083964 _5_ RTR  --- 30 cbr 532 [13a 5 1 800] ------- [0:0 9:0 30 9] [22] 2 0
r 16.128217964 _9_ RTR  --- 30 cbr 532 [13a 9 5 800] ------- [0:0 9:0 30 9] [22] 3 0
r 16.128217964 _9_ AGT  --- 30 cbr 512 [13a 9 5 800] ------- [0:0 9:0 30 9] [22] 3 0
s 16.177217925 _0_ AGT  --- 31 cbr 512 [0 0 0 0] ------- [0:0 9:0 32 0] [23] 0 0
r 16.177217925 _0_ RTR  --- 31 cbr 512 [0 0 0 0] ------- [0:0 9:0 32 0] [23] 0 0
SFs 16.177217925 _0_ 31 [0 -> 9] 1(0) to 1 
s 16.177217925 _0_ RTR  --- 31 cbr 532 [0 0 0 0] ------- [0:0 9:0 32 1] [23] 0 0
r 16.182747925 _1_ RTR  --- 31 cbr 532 [13a 1 0 800] ------- [0:0 9:0 32 1] [23] 1 0
SFf 16.182747925 _1_ 31 [0 -> 9] 1 to 5
f 16.182747925 _1_ RTR  --- 31 cbr 532 [13a 1 0 800] ------- [0:0 9:0 31 5] [23] 1 0
r 16.188641925 _5_ RTR  --- 31 cbr 532 [13a 5 1 800] ------- [0:0 9:0 31 5] [23] 2 0
SFf 16.188641925 _5_ 31 [0 -> 9] 1 to 9
f 16.188641925 _5_ RTR  --- 31 cbr 532 [13a 5 1 800] ------- [0:0 9:0 30 9] [23] 2 0
r 16.194815925 _9_ RTR  --- 31 cbr 532 [13a 9 5 800] ------- [0:0 9:0 30 9] [23] 3 0
r 16.194815925 _9_ AGT  --- 31 cbr 512 [13a 9 5 800] ------- [0:0 9:0 30 9] [23] 3 0