Sconfig 0.00000 tap: on snoop: rts? on errs? on
Sconfig 0.00000 salvage: on !bd replies? on
Sconfig 0.00000 grat error: on grat reply: on
Sconfig 0.00000 $reply for props: on ring 0 search: on
Sconfig 0.00000 using MOBICACHE
s 15.000000000 _0_ AGT  --- 0 cbr 512 [0 0 0 0] ------- [0:0 7:0 32 0] [0] 0 0
r 15.000000000 _0_ RTR  --- 0 cbr 512 [0 0 0 0] ------- [0:0 7:0 32 0] [0] 0 0
s 15.000000000 _1_ AGT  --- 2 cbr 512 [0 0 0 0] ------- [1:0 6:0 32 0] [0] 0 0
r 15.000000000 _1_ RTR  --- 2 cbr 512 [0 0 0 0] ------- [1:0 6:0 32 0] [0] 0 0
s 15.004007305 _1_ RTR  --- 3 DSR 32 [0 0 0 0] ------- [1:255 6:255 32 0] 1 [1 1] [0 1 0 0->0] [0 0 0 0->0]
r 15.004999776 _3_ RTR  --- 3 DSR 32 [0 ffffffff 1 800] ------- [1:255 6:255 32 0] 1 [1 1] [0 1 0 0->0] [0 0 0 0->0]
r 15.004999776 _4_ RTR  --- 3 DSR 32 [0 ffffffff 1 800] ------- [1:255 6:255 32 0] 1 [1 1] [0 1 0 0->0] [0 0 0 0->0]
r 15.004999971 _0_ RTR  --- 3 DSR 32 [0 ffffffff 1 800] ------- [1:255 6:255 32 0] 1 [1 1] [0 1 0 0->0] [0 0 0 0->0]
r 15.004999971 _6_ RTR  --- 3 DSR 32 [0 ffffffff 1 800] ------- [1:255 6:255 32 0] 1 [1 1] [0 1 0 0->0] [0 0 0 0->0]
r 15.004999971 _2_ RTR  --- 3 DSR 32 [0 ffffffff 1 800] ------- [1:255 6:255 32 0] 1 [1 1] [0 1 0 0->0] [0 0 0 0->0]
s 15.005035754 _0_ RTR  --- 1 DSR 32 [0 0 0 0] ------- [0:255 7:255 32 0] 1 [1 1] [0 1 0 0->0] [0 0 0 0->0]
r 15.006108225 _3_ RTR  --- 1 DSR 32 [0 ffffffff 0 800] ------- [0:255 7:255 32 0] 1 [1 1] [0 1 0 0->0] [0 0 0 0->0]
r 15.006108421 _5_ RTR  --- 1 DSR 32 [0 ffffffff 0 800] ------- [0:255 7:255 32 0] 1 [1 1] [0 1 0 0->0] [0 0 0 0->0]
r 15.006108421 _1_ RTR  --- 1 DSR 32 [0 ffffffff 0 800] ------- [0:255 7:255 32 0] 1 [1 1] [0 1 0 0->0] [0 0 0 0->0]
s 15.007403421 _6_ RTR  --- 4 DSR 44 [0 0 0 0] ------- [6:255 1:255 254 1] 2 [0 1] [1 1 2 1->6] [0 0 0 0->0]
r 15.009269421 _1_ RTR  --- 4 DSR 44 [13a 1 6 800] ------- [6:255 1:255 254 1] 2 [0 1] [1 1 2 1->6] [0 0 0 0->0]
SFESTs 15.009269421 _1_ 2 [1 -> 6] 1(1) to 6 [1 |6 ]
s 15.009269421 _1_ RTR  --- 2 cbr 548 [0 0 0 0] ------- [1:0 6:0 32 6] [0] 0 0
r 15.015171421 _6_ RTR  --- 2 cbr 548 [13a 6 1 800] ------- [1:0 6:0 32 6] [0] 1 0
r 15.015171421 _6_ AGT  --- 2 cbr 512 [13a 6 1 800] ------- [1:0 6:0 32 6] [0] 1 0
s 15.053525210 _1_ AGT  --- 6 cbr 512 [0 0 0 0] ------- [1:0 6:0 32 0] [1] 0 0
r 15.053525210 _1_ RTR  --- 6 cbr 512 [0 0 0 0] ------- [1:0 6:0 32 0] [1] 0 0
SFESTs 15.053525210 _1_ 6 [1 -> 6] 1(1) to 6 [1 |6 ]
s 15.053525210 _1_ RTR  --- 6 cbr 548 [0 0 0 0] ------- [1:0 6:0 32 6] [1] 0 0
s 15.054106129 _0_ AGT  --- 7 cbr 512 [0 0 0 0] ------- [0:0 7:0 32 0] [1] 0 0
r 15.054106129 _0_ RTR  --- 7 cbr 512 [0 0 0 0] ------- [0:0 7:0 32 0] [1] 0 0
s 15.057069608 _0_ RTR  --- 8 DSR 32 [0 0 0 0] ------- [0:255 7:255 32 0] 1 [1 2] [0 2 0 0->16] [0 0 0 0->0]
r 15.059483210 _6_ RTR  --- 6 cbr 548 [13a 6 1 800] ------- [1:0 6:0 32 6] [1] 1 0
r 15.059483210 _6_ AGT  --- 6 cbr 512 [13a 6 1 800] ------- [1:0 6:0 32 6] [1] 1 0
r 15.060884624 _3_ RTR  --- 8 DSR 32 [0 ffffffff 0 800] ------- [0:255 7:255 32 0] 1 [1 2] [0 2 0 0->16] [0 0 0 0->0]
r 15.060884819 _5_ RTR  --- 8 DSR 32 [0 ffffffff 0 800] ------- [0:255 7:255 32 0] 1 [1 2] [0 2 0 0->16] [0 0 0 0->0]
r 15.060884819 _1_ RTR  --- 8 DSR 32 [0 ffffffff 0 800] ------- [0:255 7:255 32 0] 1 [1 2] [0 2 0 0->16] [0 0 0 0->0]
f 15.061666812 _5_ RTR  --- 8 DSR 48 [0 ffffffff 0 800] ------- [0:255 7:255 32 0] 2 [1 2] [0 2 0 0->16] [0 0 0 0->0]
f 15.062056814 _1_ RTR  --- 8 DSR 48 [0 ffffffff 0 800] ------- [0:255 7:255 32 0] 2 [1 2] [0 2 0 0->16] [0 0 0 0->0]
r 15.062747284 _3_ RTR  --- 8 DSR 48 [0 ffffffff 5 800] ------- [0:255 7:255 32 0] 2 [1 2] [0 2 0 0->16] [0 0 0 0->0]
r 15.062747479 _0_ RTR  --- 8 DSR 48 [0 ffffffff 5 800] ------- [0:255 7:255 32 0] 2 [1 2] [0 2 0 0->16] [0 0 0 0->0]
r 15.062747479 _6_ RTR  --- 8 DSR 48 [0 ffffffff 5 800] ------- [0:255 7:255 32 0] 2 [1 2] [0 2 0 0->16] [0 0 0 0->0]
r 15.064282226 _3_ RTR  --- 8 DSR 48 [0 ffffffff 1 800] ------- [0:255 7:255 32 0] 2 [1 2] [0 2 0 0->16] [0 0 0 0->0]
r 15.064282226 _4_ RTR  --- 8 DSR 48 [0 ffffffff 1 800] ------- [0:255 7:255 32 0] 2 [1 2] [0 2 0 0->16] [0 0 0 0->0]
r 15.064282422 _0_ RTR  --- 8 DSR 48 [0 ffffffff 1 800] ------- [0:255 7:255 32 0] 2 [1 2] [0 2 0 0->16] [0 0 0 0->0]
r 15.064282422 _6_ RTR  --- 8 DSR 48 [0 ffffffff 1 800] ------- [0:255 7:255 32 0] 2 [1 2] [0 2 0 0->16] [0 0 0 0->0]
r 15.064282422 _2_ RTR  --- 8 DSR 48 [0 ffffffff 1 800] ------- [0:255 7:255 32 0] 2 [1 2] [0 2 0 0->16] [0 0 0 0->0]
f 15.065504796 _3_ RTR  --- 8 DSR 48 [0 ffffffff 0 800] ------- [0:255 7:255 32 0] 2 [1 2] [0 2 0 0->16] [0 0 0 0->0]
r 15.066425268 _5_ RTR  --- 8 DSR 48 [0 ffffffff 3 800] ------- [0:255 7:255 32 0] 2 [1 2] [0 2 0 0->16] [0 0 0 0->0]
r 15.066425268 _0_ RTR  --- 8 DSR 48 [0 ffffffff 3 800] ------- [0:255 7:255 32 0] 2 [1 2] [0 2 0 0->16] [0 0 0 0->0]
r 15.066425268 _1_ RTR  --- 8 DSR 48 [0 ffffffff 3 800] ------- [0:255 7:255 32 0] 2 [1 2] [0 2 0 0->16] [0 0 0 0->0]
r 15.066425268 _6_ RTR  --- 8 DSR 48 [0 ffffffff 3 800] ------- [0:255 7:255 32 0] 2 [1 2] [0 2 0 0->16] [0 0 0 0->0]
r 15.066425463 _4_ RTR  --- 8 DSR 48 [0 ffffffff 3 800] ------- [0:255 7:255 32 0] 2 [1 2] [0 2 0 0->16] [0 0 0 0->0]
f 15.066990926 _6_ RTR  --- 8 DSR 68 [0 ffffffff 5 800] ------- [0:255 7:255 32 0] 3 [1 2] [0 2 0 0->16] [0 0 0 0->0]
r 15.068551397 _3_ RTR  --- 8 DSR 68 [0 ffffffff 6 800] ------- [0:255 7:255 32 0] 3 [1 2] [0 2 0 0->16] [0 0 0 0->0]
r 15.068551397 _4_ RTR  --- 8 DSR 68 [0 ffffffff 6 800] ------- [0:255 7:255 32 0] 3 [1 2] [0 2 0 0->16] [0 0 0 0->0]
r 15.068551593 _1_ RTR  --- 8 DSR 68 [0 ffffffff 6 800] ------- [0:255 7:255 32 0] 3 [1 2] [0 2 0 0->16] [0 0 0 0->0]
r 15.068551593 _5_ RTR  --- 8 DSR 68 [0 ffffffff 6 800] ------- [0:255 7:255 32 0] 3 [1 2] [0 2 0 0->16] [0 0 0 0->0]
r 15.068551593 _7_ RTR  --- 8 DSR 68 [0 ffffffff 6 800] ------- [0:255 7:255 32 0] 3 [1 2] [0 2 0 0->16] [0 0 0 0->0]
f 15.068876926 _4_ RTR  --- 8 DSR 68 [0 ffffffff 1 800] ------- [0:255 7:255 32 0] 3 [1 2] [0 2 0 0->16] [0 0 0 0->0]
r 15.070457397 _6_ RTR  --- 8 DSR 68 [0 ffffffff 4 800] ------- [0:255 7:255 32 0] 3 [1 2] [0 2 0 0->16] [0 0 0 0->0]
r 15.070457397 _1_ RTR  --- 8 DSR 68 [0 ffffffff 4 800] ------- [0:255 7:255 32 0] 3 [1 2] [0 2 0 0->16] [0 0 0 0->0]
r 15.070457397 _2_ RTR  --- 8 DSR 68 [0 ffffffff 4 800] ------- [0:255 7:255 32 0] 3 [1 2] [0 2 0 0->16] [0 0 0 0->0]
r 15.070457397 _7_ RTR  --- 8 DSR 68 [0 ffffffff 4 800] ------- [0:255 7:255 32 0] 3 [1 2] [0 2 0 0->16] [0 0 0 0->0]
r 15.070457592 _3_ RTR  --- 8 DSR 68 [0 ffffffff 4 800] ------- [0:255 7:255 32 0] 3 [1 2] [0 2 0 0->16] [0 0 0 0->0]
f 15.071247404 _2_ RTR  --- 8 DSR 68 [0 ffffffff 1 800] ------- [0:255 7:255 32 0] 3 [1 2] [0 2 0 0->16] [0 0 0 0->0]
r 15.072347875 _4_ RTR  --- 8 DSR 68 [0 ffffffff 2 800] ------- [0:255 7:255 32 0] 3 [1 2] [0 2 0 0->16] [0 0 0 0->0]
r 15.072348071 _1_ RTR  --- 8 DSR 68 [0 ffffffff 2 800] ------- [0:255 7:255 32 0] 3 [1 2] [0 2 0 0->16] [0 0 0 0->0]
r 15.072348071 _7_ RTR  --- 8 DSR 68 [0 ffffffff 2 800] ------- [0:255 7:255 32 0] 3 [1 2] [0 2 0 0->16] [0 0 0 0->0]
s 15.073083536 _7_ RTR  --- 11 DSR 60 [0 0 0 0] ------- [7:255 0:255 254 2] 4 [0 2] [1 2 4 0->7] [0 0 0 0->0]
r 15.074837536 _2_ RTR  --- 11 DSR 60 [13a 2 7 800] ------- [7:255 0:255 254 2] 4 [0 2] [1 2 4 0->7] [0 0 0 0->0]
f 15.074837536 _2_ RTR  --- 11 DSR 60 [13a 2 7 800] ------- [7:255 0:255 253 1] 4 [0 2] [1 2 4 0->7] [0 0 0 0->0]
r 15.076955536 _1_ RTR  --- 11 DSR 60 [13a 1 2 800] ------- [7:255 0:255 253 1] 4 [0 2] [1 2 4 0->7] [0 0 0 0->0]
f 15.076955536 _1_ RTR  --- 11 DSR 60 [13a 1 2 800] ------- [7:255 0:255 252 0] 4 [0 2] [1 2 4 0->7] [0 0 0 0->0]
s 15.078330065 _7_ RTR  --- 9 DSR 60 [0 0 0 0] ------- [7:255 0:255 254 6] 4 [0 2] [1 2 4 0->7] [0 0 0 0->0]
s 15.078924740 _7_ RTR  --- 10 DSR 60 [0 0 0 0] ------- [7:255 0:255 254 4] 4 [0 2] [1 2 4 0->7] [0 0 0 0->0]
r 15.079293536 _0_ RTR  --- 11 DSR 60 [13a 0 1 800] ------- [7:255 0:255 252 0] 4 [0 2] [1 2 4 0->7] [0 0 0 0->0]
SFESTs 15.079293536 _0_ 0 [0 -> 7] 1(1) to 1 [0 |1 2 7 ]
SFESTs 15.079293536 _0_ 7 [0 -> 7] 1(1) to 1 [0 |1 2 7 ]
s 15.079293536 _0_ RTR  --- 0 cbr 556 [0 0 0 0] ------- [0:0 7:0 32 1] [0] 0 0
r 15.085559536 _1_ RTR  --- 0 cbr 556 [13a 1 0 800] ------- [0:0 7:0 32 1] [0] 1 0
f 15.085559536 _1_ RTR  --- 0 cbr 556 [13a 1 0 800] ------- [0:0 7:0 31 2] [0] 1 0
s 15.087708794 _1_ AGT  --- 14 cbr 512 [0 0 0 0] ------- [1:0 6:0 32 0] [2] 0 0
r 15.087708794 _1_ RTR  --- 14 cbr 512 [0 0 0 0] ------- [1:0 6:0 32 0] [2] 0 0
SFESTs 15.087708794 _1_ 14 [1 -> 6] 1(1) to 6 [1 |6 ]
s 15.087708794 _1_ RTR  --- 14 cbr 548 [0 0 0 0] ------- [1:0 6:0 32 6] [2] 0 0
r 15.091465536 _2_ RTR  --- 0 cbr 556 [13a 2 1 800] ------- [0:0 7:0 31 2] [0] 2 0
f 15.091465536 _2_ RTR  --- 0 cbr 556 [13a 2 1 800] ------- [0:0 7:0 30 7] [0] 2 0
r 15.097768203 _6_ RTR  --- 14 cbr 548 [13a 6 1 800] ------- [1:0 6:0 32 6] [2] 1 0
r 15.097768203 _6_ AGT  --- 14 cbr 512 [13a 6 1 800] ------- [1:0 6:0 32 6] [2] 1 0
r 15.099816479 _6_ RTR  --- 9 DSR 60 [13a 6 7 800] ------- [7:255 0:255 254 6] 4 [0 2] [1 2 4 0->7] [0 0 0 0->0]
f 15.099816479 _6_ RTR  --- 9 DSR 60 [13a 6 7 800] ------- [7:255 0:255 253 5] 4 [0 2] [1 2 4 0->7] [0 0 0 0->0]
r 15.101794560 _4_ RTR  --- 10 DSR 60 [13a 4 7 800] ------- [7:255 0:255 254 4] 4 [0 2] [1 2 4 0->7] [0 0 0 0->0]
f 15.101794560 _4_ RTR  --- 10 DSR 60 [13a 4 7 800] ------- [7:255 0:255 253 1] 4 [0 2] [1 2 4 0->7] [0 0 0 0->0]
s 15.101932549 _0_ AGT  --- 15 cbr 512 [0 0 0 0] ------- [0:0 7:0 32 0] [2] 0 0
r 15.101932549 _0_ RTR  --- 15 cbr 512 [0 0 0 0] ------- [0:0 7:0 32 0] [2] 0 0
SFESTs 15.101932549 _0_ 15 [0 -> 7] 1(1) to 1 [0 |1 2 7 ]
s 15.101932549 _0_ RTR  --- 15 cbr 556 [0 0 0 0] ------- [0:0 7:0 32 1] [2] 0 0
r 15.107801031 _7_ RTR  --- 0 cbr 556 [13a 7 2 800] ------- [0:0 7:0 30 7] [0] 3 0
r 15.107801031 _7_ AGT  --- 0 cbr 512 [13a 7 2 800] ------- [0:0 7:0 30 7] [0] 3 0
s 15.109293536 _0_ RTR  --- 7 cbr 556 [0 0 0 0] ------- [0:0 7:0 32 1] [1] 0 0
r 15.109898917 _1_ RTR  --- 10 DSR 60 [13a 1 4 800] ------- [7:255 0:255 253 1] 4 [0 2] [1 2 4 0->7] [0 0 0 0->0]
f 15.109898917 _1_ RTR  --- 10 DSR 60 [13a 1 4 800] ------- [7:255 0:255 252 0] 4 [0 2] [1 2 4 0->7] [0 0 0 0->0]
r 15.112097583 _5_ RTR  --- 9 DSR 60 [13a 5 6 800] ------- [7:255 0:255 253 5] 4 [0 2] [1 2 4 0->7] [0 0 0 0->0]
f 15.112097583 _5_ RTR  --- 9 DSR 60 [13a 5 6 800] ------- [7:255 0:255 252 0] 4 [0 2] [1 2 4 0->7] [0 0 0 0->0]
r 15.118193860 _1_ RTR  --- 15 cbr 556 [13a 1 0 800] ------- [0:0 7:0 32 1] [2] 1 0
f 15.118193860 _1_ RTR  --- 15 cbr 556 [13a 1 0 800] ------- [0:0 7:0 31 2] [2] 1 0
r 15.124340526 _1_ RTR  --- 7 cbr 556 [13a 1 0 800] ------- [0:0 7:0 32 1] [1] 1 0
f 15.124340526 _1_ RTR  --- 7 cbr 556 [13a 1 0 800] ------- [0:0 7:0 31 2] [1] 1 0
r 15.126318526 _0_ RTR  --- 10 DSR 60 [13a 0 1 800] ------- [7:255 0:255 252 0] 4 [0 2] [1 2 4 0->7] [0 0 0 0->0]
r 15.128726802 _0_ RTR  --- 9 DSR 60 [13a 0 5 800] ------- [7:255 0:255 252 0] 4 [0 2] [1 2 4 0->7] [0 0 0 0->0]
s 15.131814436 _0_ AGT  --- 16 cbr 512 [0 0 0 0] ------- [0:0 7:0 32 0] [3] 0 0
r 15.131814436 _0_ RTR  --- 16 cbr 512 [0 0 0 0] ------- [0:0 7:0 32 0] [3] 0 0
SFs 15.131814436 _0_ 16 [0 -> 7] 1(0) to 1 
s 15.131814436 _0_ RTR  --- 16 cbr 532 [0 0 0 0] ------- [0:0 7:0 32 1] [3] 0 0
r 15.134743079 _2_ RTR  --- 15 cbr 556 [13a 2 1 800] ------- [0:0 7:0 31 2] [2] 2 0
f 15.134743079 _2_ RTR  --- 15 cbr 556 [13a 2 1 800] ------- [0:0 7:0 30 7] [2] 2 0
r 15.140809079 _7_ RTR  --- 15 cbr 556 [13a 7 2 800] ------- [0:0 7:0 30 7] [2] 3 0
r 15.140809079 _7_ AGT  --- 15 cbr 512 [13a 7 2 800] ------- [0:0 7:0 30 7] [2] 3 0
s 15.142240955 _1_ AGT  --- 17 cbr 512 [0 0 0 0] ------- [1:0 6:0 32 0] [3] 0 0
r 15.142240955 _1_ RTR  --- 17 cbr 512 [0 0 0 0] ------- [1:0 6:0 32 0] [3] 0 0
SFs 15.142240955 _1_ 17 [1 -> 6] 1(0) to 6 
s 15.142240955 _1_ RTR  --- 17 cbr 532 [0 0 0 0] ------- [1:0 6:0 32 6] [3] 0 0
r 15.147280021 _2_ RTR  --- 7 cbr 556 [13a 2 1 800] ------- [0:0 7:0 31 2] [1] 2 0
f 15.147280021 _2_ RTR  --- 7 cbr 556 [13a 2 1 800] ------- [0:0 7:0 30 7] [1] 2 0
r 15.153326021 _7_ RTR  --- 7 cbr 556 [13a 7 2 800] ------- [0:0 7:0 30 7] [1] 3 0
r 15.153326021 _7_ AGT  --- 7 cbr 512 [13a 7 2 800] ------- [0:0 7:0 30 7] [1] 3 0
r 15.159765512 _1_ RTR  --- 16 cbr 532 [13a 1 0 800] ------- [0:0 7:0 32 1] [3] 1 0
SFf 15.159765512 _1_ 16 [0 -> 7] 1 to 2
f 15.159765512 _1_ RTR  --- 16 cbr 532 [13a 1 0 800] ------- [0:0 7:0 31 2] [3] 1 0
r 15.165579512 _6_ RTR  --- 17 cbr 532 [13a 6 1 800] ------- [1:0 6:0 32 6] [3] 1 0
r 15.165579512 _6_ AGT  --- 17 cbr 512 [13a 6 1 800] ------- [1:0 6:0 32 6] [3] 1 0
s 15.168822216 _1_ AGT  --- 18 cbr 512 [0 0 0 0] ------- [1:0 6:0 32 0] [4] 0 0
r 15.168822216 _1_ RTR  --- 18 cbr 512 [0 0 0 0] ------- [1:0 6:0 32 0] [4] 0 0
SFs 15.168822216 _1_ 18 [1 -> 6] 1(0) to 6 
s 15.168822216 _1_ RTR  --- 18 cbr 532 [0 0 0 0] ------- [1:0 6:0 32 6] [4] 0 0
r 15.171574179 _2_ RTR  --- 16 cbr 532 [13a 2 1 800] ------- [0:0 7:0 31 2] [3] 2 0
SFf 15.171574179 _2_ 16 [0 -> 7] 1 to 7
f 15.171574179 _2_ RTR  --- 16 cbr 532 [13a 2 1 800] ------- [0:0 7:0 30 7] [3] 2 0
r 15.177628179 _7_ RTR  --- 16 cbr 532 [13a 7 2 800] ------- [0:0 7:0 30 7] [3] 3 0
r 15.177628179 _7_ AGT  --- 16 cbr 512 [13a 7 2 800] ------- [0:0 7:0 30 7] [3] 3 0
r 15.183827122 _6_ RTR  --- 18 cbr 532 [13a 6 1 800] ------- [1:0 6:0 32 6] [4] 1 0
r 15.183827122 _6_ AGT  --- 18 cbr 512 [13a 6 1 800] ------- [1:0 6:0 32 6] [4] 1 0
s 15.188759446 _0_ AGT  --- 19 cbr 512 [0 0 0 0] ------- [0:0 7:0 32 0] [4] 0 0
r 15.188759446 _0_ RTR  --- 19 cbr 512 [0 0 0 0] ------- [0:0 7:0 32 0] [4] 0 0
SFs 15.188759446 _0_ 19 [0 -> 7] 1(0) to 1 
s 15.188759446 _0_ RTR  --- 19 cbr 532 [0 0 0 0] ------- [0:0 7:0 32 1] [4] 0 0
r 15.194509446 _1_ RTR  --- 19 cbr 532 [13a 1 0 800] ------- [0:0 7:0 32 1] [4] 1 0
SFf 15.194509446 _1_ 19 [0 -> 7] 1 to 2
f 15.194509446 _1_ RTR  --- 19 cbr 532 [13a 1 0 800] ------- [0:0 7:0 31 2] [4] 1 0
r 15.200443446 _2_ RTR  --- 19 cbr 532 [13a 2 1 800] ------- [0:0 7:0 31 2] [4] 2 0
SFf 15.200443446 _2_ 19 [0 -> 7] 1 to 7
f 15.200443446 _2_ RTR  --- 19 cbr 532 [13a 2 1 800] ------- [0:0 7:0 30 7] [4] 2 0
r 15.206397446 _7_ RTR  --- 19 cbr 532 [13a 7 2 800] ------- [0:0 7:0 30 7] [4] 3 0
r 15.206397446 _7_ AGT  --- 19 cbr 512 [13a 7 2 800] ------- [0:0 7:0 30 7] [4] 3 0
s 15.210652658 _1_ AGT  --- 20 cbr 512 [0 0 0 0] ------- [1:0 6:0 32 0] [5] 0 0
r 15.210652658 _1_ RTR  --- 20 cbr 512 [0 0 0 0] ------- [1:0 6:0 32 0] [5] 0 0
SFs 15.210652658 _1_ 20 [1 -> 6] 1(0) to 6 
s 15.210652658 _1_ RTR  --- 20 cbr 532 [0 0 0 0] ------- [1:0 6:0 32 6] [5] 0 0
r 15.216202658 _6_ RTR  --- 20 cbr 532 [13a 6 1 800] ------- [1:0 6:0 32 6] [5] 1 0
r 15.216202658 _6_ AGT  --- 20 cbr 512 [13a 6 1 800] ------- [1:0 6:0 32 6] [5] 1 0
s 15.223824422 _0_ AGT  --- 21 cbr 512 [0 0 0 0] ------- [0:0 7:0 32 0] [5] 0 0
r 15.223824422 _0_ RTR  --- 21 cbr 512 [0 0 0 0] ------- [0:0 7:0 32 0] [5] 0 0
SFs 15.223824422 _0_ 21 [0 -> 7] 1(0) to 1 
s 15.223824422 _0_ RTR  --- 21 cbr 532 [0 0 0 0] ------- [0:0 7:0 32 1] [5] 0 0
r 15.229834422 _1_ RTR  --- 21 cbr 532 [13a 1 0 800] ------- [0:0 7:0 32 1] [5] 1 0
SFf 15.229834422 _1_ 21 [0 -> 7] 1 to 2
f 15.229834422 _1_ RTR  --- 21 cbr 532 [13a 1 0 800] ------- [0:0 7:0 31 2] [5] 1 0
r 15.236008422 _2_ RTR  --- 21 cbr 532 [13a 2 1 800] ------- [0:0 7:0 31 2] [5] 2 0
SFf 15.236008422 _2_ 21 [0 -> 7] 1 to 7
f 15.236008422 _2_ RTR  --- 21 cbr 532 [13a 2 1 800] ------- [0:0 7:0 30 7] [5] 2 0
r 15.242242422 _7_ RTR  --- 21 cbr 532 [13a 7 2 800] ------- [0:0 7:0 30 7] [5] 3 0
r 15.242242422 _7_ AGT  --- 21 cbr 512 [13a 7 2 800] ------- [0:0 7:0 30 7] [5] 3 0
s 15.276844394 _1_ AGT  --- 22 cbr 512 [0 0 0 0] ------- [1:0 6:0 32 0] [6] 0 0
r 15.276844394 _1_ RTR  --- 22 cbr 512 [0 0 0 0] ------- [1:0 6:0 32 0] [6] 0 0
SFs 15.276844394 _1_ 22 [1 -> 6] 1(0) to 6 
s 15.276844394 _1_ RTR  --- 22 cbr 532 [0 0 0 0] ------- [1:0 6:0 32 6] [6] 0 0
r 15.282634394 _6_ RTR  --- 22 cbr 532 [13a 6 1 800] ------- [1:0 6:0 32 6] [6] 1 0
r 15.282634394 _6_ AGT  --- 22 cbr 512 [13a 6 1 800] ------- [1:0 6:0 32 6] [6] 1 0
s 15.285911791 _0_ AGT  --- 23 cbr 512 [0 0 0 0] ------- [0:0 7:0 32 0] [6] 0 0
r 15.285911791 _0_ RTR  --- 23 cbr 512 [0 0 0 0] ------- [0:0 7:0 32 0] [6] 0 0
SFs 15.285911791 _0_ 23 [0 -> 7] 1(0) to 1 
s 15.285911791 _0_ RTR  --- 23 cbr 532 [0 0 0 0] ------- [0:0 7:0 32 1] [6] 0 0
r 15.291361791 _1_ RTR  --- 23 cbr 532 [13a 1 0 800] ------- [0:0 7:0 32 1] [6] 1 0
SFf 15.291361791 _1_ 23 [0 -> 7] 1 to 2
f 15.291361791 _1_ RTR  --- 23 cbr 532 [13a 1 0 800] ------- [0:0 7:0 31 2] [6] 1 0
r 15.297195791 _2_ RTR  --- 23 cbr 532 [13a 2 1 800] ------- [0:0 7:0 31 2] [6] 2 0
SFf 15.297195791 _2_ 23 [0 -> 7] 1 to 7
f 15.297195791 _2_ RTR  --- 23 cbr 532 [13a 2 1 800] ------- [0:0 7:0 30 7] [6] 2 0
r 15.303389791 _7_ RTR  --- 23 cbr 532 [13a 7 2 800] ------- [0:0 7:0 30 7] [6] 3 0
r 15.303389791 _7_ AGT  --- 23 cbr 512 [13a 7 2 800] ------- [0:0 7:0 30 7] [6] 3 0
s 15.326009322 _1_ AGT  --- 24 cbr 512 [0 0 0 0] ------- [1:0 6:0 32 0] [7] 0 0
r 15.326009322 _1_ RTR  --- 24 cbr 512 [0 0 0 0] ------- [1:0 6:0 32 0] [7] 0 0
SFs 15.326009322 _1_ 24 [1 -> 6] 1(0) to 6 
s 15.326009322 _1_ RTR  --- 24 cbr 532 [0 0 0 0] ------- [1:0 6:0 32 6] [7] 0 0
r 15.331919322 _6_ RTR  --- 24 cbr 532 [13a 6 1 800] ------- [1:0 6:0 32 6] [7] 1 0
r 15.331919322 _6_ AGT  --- 24 cbr 512 [13a 6 1 800] ------- [1:0 6:0 32 6] [7] 1 0
s 15.348368455 _0_ AGT  --- 25 cbr 512 [0 0 0 0] ------- [0:0 7:0 32 0] [7] 0 0
r 15.348368455 _0_ RTR  --- 25 cbr 512 [0 0 0 0] ------- [0:0 7:0 32 0] [7] 0 0
SFs 15.348368455 _0_ 25 [0 -> 7] 1(0) to 1 
s 15.348368455 _0_ RTR  --- 25 cbr 532 [0 0 0 0] ------- [0:0 7:0 32 1] [7] 0 0
r 15.354138455 _1_ RTR  --- 25 cbr 532 [13a 1 0 800] ------- [0:0 7:0 32 1] [7] 1 0
SFf 15.354138455 _1_ 25 [0 -> 7] 1 to 2
f 15.354138455 _1_ RTR  --- 25 cbr 532 [13a 1 0 800] ------- [0:0 7:0 31 2] [7] 1 0
r 15.359852455 _2_ RTR  --- 25 cbr 532 [13a 2 1 800] ------- [0:0 7:0 31 2] [7] 2 0
SFf 15.359852455 _2_ 25 [0 -> 7] 1 to 7
f 15.359852455 _2_ RTR  --- 25 cbr 532 [13a 2 1 800] ------- [0:0 7:0 30 7] [7] 2 0
s 15.365904024 _1_ AGT  --- 26 cbr 512 [0 0 0 0] ------- [1:0 6:0 32 0] [8] 0 0
r 15.365904024 _1_ RTR  --- 26 cbr 512 [0 0 0 0] ------- [1:0 6:0 32 0] [8] 0 0
SFs 15.365904024 _1_ 26 [1 -> 6] 1(0) to 6 
s 15.365904024 _1_ RTR  --- 26 cbr 532 [0 0 0 0] ------- [1:0 6:0 32 6] [8] 0 0
r 15.366066455 _7_ RTR  --- 25 cbr 532 [13a 7 2 800] ------- [0:0 7:0 30 7] [7] 3 0
r 15.366066455 _7_ AGT  --- 25 cbr 512 [13a 7 2 800] ------- [0:0 7:0 30 7] [7] 3 0
r 15.372745398 _6_ RTR  --- 26 cbr 532 [13a 6 1 800] ------- [1:0 6:0 32 6] [8] 1 0
r 15.372745398 _6_ AGT  --- 26 cbr 512 [13a 6 1 800] ------- [1:0 6:0 32 6] [8] 1 0
s 15.399269755 _1_ AGT  --- 27 cbr 512 [0 0 0 0] ------- [1:0 6:0 32 0] [9] 0 0
r 15.399269755 _1_ RTR  --- 27 cbr 512 [0 0 0 0] ------- [1:0 6:0 32 0] [9] 0 0
SFs 15.399269755 _1_ 27 [1 -> 6] 1(0) to 6 
s 15.399269755 _1_ RTR  --- 27 cbr 532 [0 0 0 0] ------- [1:0 6:0 32 6] [9] 0 0
r 15.404739755 _6_ RTR  --- 27 cbr 532 [13a 6 1 800] ------- [1:0 6:0 32 6] [9] 1 0
r 15.404739755 _6_ AGT  --- 27 cbr 512 [13a 6 1 800] ------- [1:0 6:0 32 6] [9] 1 0
s 15.410193058 _0_ AGT  --- 28 cbr 512 [0 0 0 0] ------- [0:0 7:0 32 0] [8] 0 0
r 15.410193058 _0_ RTR  --- 28 cbr 512 [0 0 0 0] ------- [0:0 7:0 32 0] [8] 0 0
SFs 15.410193058 _0_ 28 [0 -> 7] 1(0) to 1 
s 15.410193058 _0_ RTR  --- 28 cbr 532 [0 0 0 0] ------- [0:0 7:0 32 1] [8] 0 0
r 15.415683058 _1_ RTR  --- 28 cbr 532 [13a 1 0 800] ------- [0:0 7:0 32 1] [8] 1 0
SFf 15.415683058 _1_ 28 [0 -> 7] 1 to 2
f 15.415683058 _1_ RTR  --- 28 cbr 532 [13a 1 0 800] ------- [0:0 7:0 31 2] [8] 1 0
r 15.421537058 _2_ RTR  --- 28 cbr 532 [13a 2 1 800] ------- [0:0 7:0 31 2] [8] 2 0
SFf 15.421537058 _2_ 28 [0 -> 7] 1 to 7
f 15.421537058 _2_ RTR  --- 28 cbr 532 [13a 2 1 800] ------- [0:0 7:0 30 7] [8] 2 0
r 15.427451058 _7_ RTR  --- 28 cbr 532 [13a 7 2 800] ------- [0:0 7:0 30 7] [8] 3 0
r 15.427451058 _7_ AGT  --- 28 cbr 512 [13a 7 2 800] ------- [0:0 7:0 30 7] [8] 3 0
s 15.470973652 _1_ AGT  --- 29 cbr 512 [0 0 0 0] ------- [1:0 6:0 32 0] [10] 0 0
r 15.470973652 _1_ RTR  --- 29 cbr 512 [0 0 0 0] ------- [1:0 6:0 32 0] [10] 0 0
SFs 15.470973652 _1_ 29 [1 -> 6] 1(0) to 6 
s 15.470973652 _1_ RTR  --- 29 cbr 532 [0 0 0 0] ------- [1:0 6:0 32 6] [10] 0 0
r 15.476683652 _6_ RTR  --- 29 cbr 532 [13a 6 1 800] ------- [1:0 6:0 32 6] [10] 1 0
r 15.476683652 _6_ AGT  --- 29 cbr 512 [13a 6 1 800] ------- [1:0 6:0 32 6] [10] 1 0
s 15.480163734 _0_ AGT  --- 30 cbr 512 [0 0 0 0] ------- [0:0 7:0 32 0] [9] 0 0
r 15.480163734 _0_ RTR  --- 30 cbr 512 [0 0 0 0] ------- [0:0 7:0 32 0] [9] 0 0
SFs 15.480163734 _0_ 30 [0 -> 7] 1(0) to 1 
s 15.480163734 _0_ RTR  --- 30 cbr 532 [0 0 0 0] ------- [0:0 7:0 32 1] [9] 0 0
r 15.486173734 _1_ RTR  --- 30 cbr 532 [13a 1 0 800] ------- [0:0 7:0 32 1] [9] 1 0
SFf 15.486173734 _1_ 30 [0 -> 7] 1 to 2
f 15.486173734 _1_ RTR  --- 30 cbr 532 [13a 1 0 800] ------- [0:0 7:0 31 2] [9] 1 0
r 15.491907734 _2_ RTR  --- 30 cbr 532 [13a 2 1 800] ------- [0:0 7:0 31 2] [9] 2 0
SFf 15.491907734 _2_ 30 [0 -> 7] 1 to 7
f 15.491907734 _2_ RTR  --- 30 cbr 532 [13a 2 1 800] ------- [0:0 7:0 30 7] [9] 2 0
r 15.497841734 _7_ RTR  --- 30 cbr 532 [13a 7 2 800] ------- [0:0 7:0 30 7] [9] 3 0
r 15.497841734 _7_ AGT  --- 30 cbr 512 [13a 7 2 800] ------- [0:0 7:0 30 7] [9] 3 0
s 15.529153222 _0_ AGT  --- 31 cbr 512 [0 0 0 0] ------- [0:0 7:0 32 0] [10] 0 0
r 15.529153222 _0_ RTR  --- 31 cbr 512 [0 0 0 0] ------- [0:0 7:0 32 0] [10] 0 0
SFs 15.529153222 _0_ 31 [0 -> 7] 1(0) to 1 
s 15.529153222 _0_ RTR  --- 31 cbr 532 [0 0 0 0] ------- [0:0 7:0 32 1] [10] 0 0
r 15.534643222 _1_ RTR  --- 31 cbr 532 [13a 1 0 800] ------- [0:0 7:0 32 1] [10] 1 0
SFf 15.534643222 _1_ 31 [0 -> 7] 1 to 2
f 15.534643222 _1_ RTR  --- 31 cbr 532 [13a 1 0 800] ------- [0:0 7:0 31 2] [10] 1 0
s 15.538383065 _1_ AGT  --- 32 cbr 512 [0 0 0 0] ------- [1:0 6:0 32 0] [11] 0 0
r 15.538383065 _1_ RTR  --- 32 cbr 512 [0 0 0 0] ------- [1:0 6:0 32 0] [11] 0 0
SFs 15.538383065 _1_ 32 [1 -> 6] 1(0) to 6 
s 15.538383065 _1_ RTR  --- 32 cbr 532 [0 0 0 0] ------- [1:0 6:0 32 6] [11] 0 0
r 15.540817222 _2_ RTR  --- 31 cbr 532 [13a 2 1 800] ------- [0:0 7:0 31 2] [10] 2 0
SFf 15.540817222 _2_ 31 [0 -> 7] 1 to 7
f 15.540817222 _2_ RTR  --- 31 cbr 532 [13a 2 1 800] ------- [0:0 7:0 30 7] [10] 2 0
r 15.546831889 _6_ RTR  --- 32 cbr 532 [13a 6 1 800] ------- [1:0 6:0 32 6] [11] 1 0
r 15.546831889 _6_ AGT  --- 32 cbr 512 [13a 6 1 800] ------- [1:0 6:0 32 6] [11] 1 0
r 15.552930832 _7_ RTR  --- 31 cbr 532 [13a 7 2 800] ------- [0:0 7:0 30 7] [10] 3 0
r 15.552930832 _7_ AGT  --- 31 cbr 512 [13a 7 2 800] ------- [0:0 7:0 30 7] [10] 3 0
s 15.569821198 _0_ AGT  --- 33 cbr 512 [0 0 0 0] ------- [0:0 7:0 32 0] [11] 0 0
r 15.569821198 _0_ RTR  --- 33 cbr 512 [0 0 0 0] ------- [0:0 7:0 32 0] [11] 0 0
SFs 15.569821198 _0_ 33 [0 -> 7] 1(0) to 1 
s 15.569821198 _0_ RTR  --- 33 cbr 532 [0 0 0 0] ------- [0:0 7:0 32 1] [11] 0 0
r 15.575831198 _1_ RTR  --- 33 cbr 532 [13a 1 0 800] ------- [0:0 7:0 32 1] [11] 1 0
SFf 15.575831198 _1_ 33 [0 -> 7] 1 to 2
f 15.575831198 _1_ RTR  --- 33 cbr 532 [13a 1 0 800] ------- [0:0 7:0 31 2] [11] 1 0
r 15.581625198 _2_ RTR  --- 33 cbr 532 [13a 2 1 800] ------- [0:0 7:0 31 2] [11] 2 0
SFf 15.581625198 _2_ 33 [0 -> 7] 1 to 7
f 15.581625198 _2_ RTR  --- 33 cbr 532 [13a 2 1 800] ------- [0:0 7:0 30 7] [11] 2 0
r 15.587619198 _7_ RTR  --- 33 cbr 532 [13a 7 2 800] ------- [0:0 7:0 30 7] [11] 3 0
r 15.587619198 _7_ AGT  --- 33 cbr 512 [13a 7 2 800] ------- [0:0 7:0 30 7] [11] 3 0
s 15.591110850 _1_ AGT  --- 34 cbr 512 [0 0 0 0] ------- [1:0 6:0 32 0] [12] 0 0
r 15.591110850 _1_ RTR  --- 34 cbr 512 [0 0 0 0] ------- [1:0 6:0 32 0] [12] 0 0
SFs 15.591110850 _1_ 34 [1 -> 6] 1(0) to 6 
s 15.591110850 _1_ RTR  --- 34 cbr 532 [0 0 0 0] ------- [1:0 6:0 32 6] [12] 0 0
r 15.596720850 _6_ RTR  --- 34 cbr 532 [13a 6 1 800] ------- [1:0 6:0 32 6] [12] 1 0
r 15.596720850 _6_ AGT  --- 34 cbr 512 [13a 6 1 800] ------- [1:0 6:0 32 6] [12] 1 0
s 15.602869983 _0_ AGT  --- 35 cbr 512 [0 0 0 0] ------- [0:0 7:0 32 0] [12] 0 0
r 15.602869983 _0_ RTR  --- 35 cbr 512 [0 0 0 0] ------- [0:0 7:0 32 0] [12] 0 0
SFs 15.602869983 _0_ 35 [0 -> 7] 1(0) to 1 
s 15.602869983 _0_ RTR  --- 35 cbr 532 [0 0 0 0] ------- [0:0 7:0 32 1] [12] 0 0
r 15.608439983 _1_ RTR  --- 35 cbr 532 [13a 1 0 800] ------- [0:0 7:0 32 1] [12] 1 0
SFf 15.608439983 _1_ 35 [0 -> 7] 1 to 2
f 15.608439983 _1_ RTR  --- 35 cbr 532 [13a 1 0 800] ------- [0:0 7:0 31 2] [12] 1 0
r 15.614273983 _2_ RTR  --- 35 cbr 532 [13a 2 1 800] ------- [0:0 7:0 31 2] [12] 2 0
SFf 15.614273983 _2_ 35 [0 -> 7] 1 to 7
f 15.614273983 _2_ RTR  --- 35 cbr 532 [13a 2 1 800] ------- [0:0 7:0 30 7] [12] 2 0
r 15.620167983 _7_ RTR  --- 35 cbr 532 [13a 7 2 800] ------- [0:0 7:0 30 7] [12] 3 0
r 15.620167983 _7_ AGT  --- 35 cbr 512 [13a 7 2 800] ------- [0:0 7:0 30 7] [12] 3 0
s 15.644497459 _1_ AGT  --- 36 cbr 512 [0 0 0 0] ------- [1:0 6:0 32 0] [13] 0 0
r 15.644497459 _1_ RTR  --- 36 cbr 512 [0 0 0 0] ------- [1:0 6:0 32 0] [13] 0 0
SFs 15.644497459 _1_ 36 [1 -> 6] 1(0) to 6 
s 15.644497459 _1_ RTR  --- 36 cbr 532 [0 0 0 0] ------- [1:0 6:0 32 6] [13] 0 0
r 15.650467459 _6_ RTR  --- 36 cbr 532 [13a 6 1 800] ------- [1:0 6:0 32 6] [13] 1 0
r 15.650467459 _6_ AGT  --- 36 cbr 512 [13a 6 1 800] ------- [1:0 6:0 32 6] [13] 1 0
s 15.652848158 _0_ AGT  --- 37 cbr 512 [0 0 0 0] ------- [0:0 7:0 32 0] [13] 0 0
r 15.652848158 _0_ RTR  --- 37 cbr 512 [0 0 0 0] ------- [0:0 7:0 32 0] [13] 0 0
SFs 15.652848158 _0_ 37 [0 -> 7] 1(0) to 1 
s 15.652848158 _0_ RTR  --- 37 cbr 532 [0 0 0 0] ------- [0:0 7:0 32 1] [13] 0 0
r 15.658718158 _1_ RTR  --- 37 cbr 532 [13a 1 0 800] ------- [0:0 7:0 32 1] [13] 1 0
SFf 15.658718158 _1_ 37 [0 -> 7] 1 to 2
f 15.658718158 _1_ RTR  --- 37 cbr 532 [13a 1 0 800] ------- [0:0 7:0 31 2] [13] 1 0
r 15.664652158 _2_ RTR  --- 37 cbr 532 [13a 2 1 800] ------- [0:0 7:0 31 2] [13] 2 0
SFf 15.664652158 _2_ 37 [0 -> 7] 1 to 7
f 15.664652158 _2_ RTR  --- 37 cbr 532 [13a 2 1 800] ------- [0:0 7:0 30 7] [13] 2 0
r 15.670726158 _7_ RTR  --- 37 cbr 532 [13a 7 2 800] ------- [0:0 7:0 30 7] [13] 3 0
r 15.670726158 _7_ AGT  --- 37 cbr 512 [13a 7 2 800] ------- [0:0 7:0 30 7] [13] 3 0
s 15.681740907 _0_ AGT  --- 38 cbr 512 [0 0 0 0] ------- [0:0 7:0 32 0] [14] 0 0
r 15.681740907 _0_ RTR  --- 38 cbr 512 [0 0 0 0] ------- [0:0 7:0 32 0] [14] 0 0
SFs 15.681740907 _0_ 38 [0 -> 7] 1(0) to 1 
s 15.681740907 _0_ RTR  --- 38 cbr 532 [0 0 0 0] ------- [0:0 7:0 32 1] [14] 0 0
r 15.687330907 _1_ RTR  --- 38 cbr 532 [13a 1 0 800] ------- [0:0 7:0 32 1] [14] 1 0
SFf 15.687330907 _1_ 38 [0 -> 7] 1 to 2
f 15.687330907 _1_ RTR  --- 38 cbr 532 [13a 1 0 800] ------- [0:0 7:0 31 2] [14] 1 0
r 15.693644907 _2_ RTR  --- 38 cbr 532 [13a 2 1 800] ------- [0:0 7:0 31 2] [14] 2 0
SFf 15.693644907 _2_ 38 [0 -> 7] 1 to 7
f 15.693644907 _2_ RTR  --- 38 cbr 532 [13a 2 1 800] ------- [0:0 7:0 30 7] [14] 2 0
r 15.699778907 _7_ RTR  --- 38 cbr 532 [13a 7 2 800] ------- [0:0 7:0 30 7] [14] 3 0
r 15.699778907 _7_ AGT  --- 38 cbr 512 [13a 7 2 800] ------- [0:0 7:0 30 7] [14] 3 0
s 15.708257843 _1_ AGT  --- 39 cbr 512 [0 0 0 0] ------- [1:0 6:0 32 0] [14] 0 0
r 15.708257843 _1_ RTR  --- 39 cbr 512 [0 0 0 0] ------- [1:0 6:0 32 0] [14] 0 0
SFs 15.708257843 _1_ 39 [1 -> 6] 1(0) to 6 
s 15.708257843 _1_ RTR  --- 39 cbr 532 [0 0 0 0] ------- [1:0 6:0 32 6] [14] 0 0
r 15.714067843 _6_ RTR  --- 39 cbr 532 [13a 6 1 800] ------- [1:0 6:0 32 6] [14] 1 0
r 15.714067843 _6_ AGT  --- 39 cbr 512 [13a 6 1 800] ------- [1:0 6:0 32 6] [14] 1 0
s 15.742580718 _0_ AGT  --- 40 cbr 512 [0 0 0 0] ------- [0:0 7:0 32 0] [15] 0 0
r 15.742580718 _0_ RTR  --- 40 cbr 512 [0 0 0 0] ------- [0:0 7:0 32 0] [15] 0 0
SFs 15.742580718 _0_ 40 [0 -> 7] 1(0) to 1 
s 15.742580718 _0_ RTR  --- 40 cbr 532 [0 0 0 0] ------- [0:0 7:0 32 1] [15] 0 0
r 15.748590718 _1_ RTR  --- 40 cbr 532 [13a 1 0 800] ------- [0:0 7:0 32 1] [15] 1 0
SFf 15.748590718 _1_ 40 [0 -> 7] 1 to 2
f 15.748590718 _1_ RTR  --- 40 cbr 532 [13a 1 0 800] ------- [0:0 7:0 31 2] [15] 1 0
r 15.754404718 _2_ RTR  --- 40 cbr 532 [13a 2 1 800] ------- [0:0 7:0 31 2] [15] 2 0
SFf 15.754404718 _2_ 40 [0 -> 7] 1 to 7
f 15.754404718 _2_ RTR  --- 40 cbr 532 [13a 2 1 800] ------- [0:0 7:0 30 7] [15] 2 0
r 15.760418718 _7_ RTR  --- 40 cbr 532 [13a 7 2 800] ------- [0:0 7:0 30 7] [15] 3 0
r 15.760418718 _7_ AGT  --- 40 cbr 512 [13a 7 2 800] ------- [0:0 7:0 30 7] [15] 3 0
s 15.760718990 _1_ AGT  --- 41 cbr 512 [0 0 0 0] ------- [1:0 6:0 32 0] [15] 0 0
r 15.760718990 _1_ RTR  --- 41 cbr 512 [0 0 0 0] ------- [1:0 6:0 32 0] [15] 0 0
SFs 15.760718990 _1_ 41 [1 -> 6] 1(0) to 6 
s 15.760718990 _1_ RTR  --- 41 cbr 532 [0 0 0 0] ------- [1:0 6:0 32 6] [15] 0 0
r 15.766677660 _6_ RTR  --- 41 cbr 532 [13a 6 1 800] ------- [1:0 6:0 32 6] [15] 1 0
r 15.766677660 _6_ AGT  --- 41 cbr 512 [13a 6 1 800] ------- [1:0 6:0 32 6] [15] 1 0
s 15.785803377 _1_ AGT  --- 42 cbr 512 [0 0 0 0] ------- [1:0 6:0 32 0] [16] 0 0
r 15.785803377 _1_ RTR  --- 42 cbr 512 [0 0 0 0] ------- [1:0 6:0 32 0] [16] 0 0
SFs 15.785803377 _1_ 42 [1 -> 6] 1(0) to 6 
s 15.785803377 _1_ RTR  --- 42 cbr 532 [0 0 0 0] ------- [1:0 6:0 32 6] [16] 0 0
r 15.791333377 _6_ RTR  --- 42 cbr 532 [13a 6 1 800] ------- [1:0 6:0 32 6] [16] 1 0
r 15.791333377 _6_ AGT  --- 42 cbr 512 [13a 6 1 800] ------- [1:0 6:0 32 6] [16] 1 0
s 15.804616402 _0_ AGT  --- 43 cbr 512 [0 0 0 0] ------- [0:0 7:0 32 0] [16] 0 0
r 15.804616402 _0_ RTR  --- 43 cbr 512 [0 0 0 0] ------- [0:0 7:0 32 0] [16] 0 0
SFs 15.804616402 _0_ 43 [0 -> 7] 1(0) to 1 
s 15.804616402 _0_ RTR  --- 43 cbr 532 [0 0 0 0] ------- [0:0 7:0 32 1] [16] 0 0
r 15.810626402 _1_ RTR  --- 43 cbr 532 [13a 1 0 800] ------- [0:0 7:0 32 1] [16] 1 0
SFf 15.810626402 _1_ 43 [0 -> 7] 1 to 2
f 15.810626402 _1_ RTR  --- 43 cbr 532 [13a 1 0 800] ------- [0:0 7:0 31 2] [16] 1 0
r 15.816560402 _2_ RTR  --- 43 cbr 532 [13a 2 1 800] ------- [0:0 7:0 31 2] [16] 2 0
SFf 15.816560402 _2_ 43 [0 -> 7] 1 to 7