n -t * -s 0  -x 272 -y 186 -Z 0 -z 30  -v circle -c black
n -t * -s 1  -x 392 -y 68 -Z 0 -z 30  -v circle -c black
n -t * -s 2  -x 310 -y 310 -Z 0 -z 30  -v circle -c black
n -t * -s 3  -x 210 -y 497 -Z 0 -z 30  -v circle -c black
n -t * -s 4  -x 87 -y 351 -Z 0 -z 30  -v circle -c black
n -t * -s 5  -x 35 -y 145 -Z 0 -z 30  -v circle -c black
n -t * -s 6  -x 300 -y 453 -Z 0 -z 30  -v circle -c black
n -t * -s 7  -x 350 -y 105 -Z 0 -z 30  -v circle -c black
V -t * -v 1.0a5 -a 0
W -t * -x 500 -y 500
A -t * -n 1 -p 0 -o 0xffffffff -c 31 -a 1
A -t * -h 1 -m 2147483647 -s 0
+ -t 15.000000000 -s 1 -d -1 -p cbr -e 512 -c 2 -a 0 -i 0 -k AGT 
- -t 15.000000000 -s 1 -d -1 -p cbr -e 512 -c 2 -a 0 -i 0 -k AGT
h -t 15.000000000 -s 1 -d -1 -p cbr -e 512 -c 2 -a 0 -i 0 -k AGT
+ -t 15.005035754 -s 1 -d -1 -p DSR -e 32 -c 2 -a 0 -i 1 -k RTR 
- -t 15.005035754 -s 1 -d -1 -p DSR -e 32 -c 2 -a 0 -i 1 -k RTR
h -t 15.005035754 -s 1 -d -1 -p DSR -e 32 -c 2 -a 0 -i 1 -k RTR
+ -t 15.054106129 -s 1 -d -1 -p cbr -e 512 -c 2 -a 0 -i 3 -k AGT 
- -t 15.054106129 -s 1 -d -1 -p cbr -e 512 -c 2 -a 0 -i 3 -k AGT
h -t 15.054106129 -s 1 -d -1 -p cbr -e 512 -c 2 -a 0 -i 3 -k AGT
+ -t 15.058229233 -s 1 -d -1 -p DSR -e 32 -c 2 -a 0 -i 4 -k RTR 
- -t 15.058229233 -s 1 -d -1 -p DSR -e 32 -c 2 -a 0 -i 4 -k RTR
h -t 15.058229233 -s 1 -d -1 -p DSR -e 32 -c 2 -a 0 -i 4 -k RTR
+ -t 15.060371865 -s 0 -d -1 -p DSR -e 48 -c 2 -a 0 -i 4 -k RTR 
- -t 15.060371865 -s 0 -d -1 -p DSR -e 48 -c 2 -a 0 -i 4 -k RTR
h -t 15.060371865 -s 0 -d -1 -p DSR -e 48 -c 2 -a 0 -i 4 -k RTR
+ -t 15.061903261 -s 5 -d -1 -p DSR -e 68 -c 2 -a 0 -i 4 -k RTR 
- -t 15.061903261 -s 5 -d -1 -p DSR -e 68 -c 2 -a 0 -i 4 -k RTR
h -t 15.061903261 -s 5 -d -1 -p DSR -e 68 -c 2 -a 0 -i 4 -k RTR
+ -t 15.063129014 -s 2 -d -1 -p DSR -e 68 -c 2 -a 0 -i 4 -k RTR 
- -t 15.063129014 -s 2 -d -1 -p DSR -e 68 -c 2 -a 0 -i 4 -k RTR
h -t 15.063129014 -s 2 -d -1 -p DSR -e 68 -c 2 -a 0 -i 4 -k RTR
+ -t 15.064256170 -s 4 -d -1 -p DSR -e 68 -c 2 -a 0 -i 4 -k RTR 
- -t 15.064256170 -s 4 -d -1 -p DSR -e 68 -c 2 -a 0 -i 4 -k RTR
h -t 15.064256170 -s 4 -d -1 -p DSR -e 68 -c 2 -a 0 -i 4 -k RTR
+ -t 15.065640801 -s 6 -d -1 -p DSR -e 92 -c 2 -a 0 -i 4 -k RTR 
- -t 15.065640801 -s 6 -d -1 -p DSR -e 92 -c 2 -a 0 -i 4 -k RTR
h -t 15.065640801 -s 6 -d -1 -p DSR -e 92 -c 2 -a 0 -i 4 -k RTR
+ -t 15.066031031 -s 3 -d 2 -p DSR -e 60 -c 2 -a 0 -i 7 -k RTR 
- -t 15.066031031 -s 3 -d 2 -p DSR -e 60 -c 2 -a 0 -i 7 -k RTR
h -t 15.066031031 -s 3 -d 2 -p DSR -e 60 -c 2 -a 0 -i 7 -k RTR
+ -t 15.067894563 -s 7 -d -1 -p DSR -e 48 -c 2 -a 0 -i 4 -k RTR 
- -t 15.067894563 -s 7 -d -1 -p DSR -e 48 -c 2 -a 0 -i 4 -k RTR
h -t 15.067894563 -s 7 -d -1 -p DSR -e 48 -c 2 -a 0 -i 4 -k RTR
+ -t 15.069196328 -s 2 -d 0 -p DSR -e 60 -c 2 -a 0 -i 7 -k RTR 
- -t 15.069196328 -s 2 -d 0 -p DSR -e 60 -c 2 -a 0 -i 7 -k RTR
h -t 15.069196328 -s 2 -d 0 -p DSR -e 60 -c 2 -a 0 -i 7 -k RTR
+ -t 15.070233169 -s 3 -d 4 -p DSR -e 60 -c 2 -a 0 -i 8 -k RTR 
- -t 15.070233169 -s 3 -d 4 -p DSR -e 60 -c 2 -a 0 -i 8 -k RTR
h -t 15.070233169 -s 3 -d 4 -p DSR -e 60 -c 2 -a 0 -i 8 -k RTR
+ -t 15.072155002 -s 0 -d 1 -p DSR -e 60 -c 2 -a 0 -i 7 -k RTR 
- -t 15.072155002 -s 0 -d 1 -p DSR -e 60 -c 2 -a 0 -i 7 -k RTR
h -t 15.072155002 -s 0 -d 1 -p DSR -e 60 -c 2 -a 0 -i 7 -k RTR
+ -t 15.074337189 -s 3 -d 6 -p DSR -e 68 -c 2 -a 0 -i 9 -k RTR 
- -t 15.074337189 -s 3 -d 6 -p DSR -e 68 -c 2 -a 0 -i 9 -k RTR
h -t 15.074337189 -s 3 -d 6 -p DSR -e 68 -c 2 -a 0 -i 9 -k RTR
+ -t 15.074612685 -s 1 -d 0 -p cbr -e 556 -c 2 -a 0 -i 0 -k RTR 
- -t 15.074612685 -s 1 -d 0 -p cbr -e 556 -c 2 -a 0 -i 0 -k RTR
h -t 15.074612685 -s 1 -d 0 -p cbr -e 556 -c 2 -a 0 -i 0 -k RTR
+ -t 15.080558368 -s 0 -d 2 -p cbr -e 556 -c 2 -a 0 -i 0 -k RTR 
- -t 15.080558368 -s 0 -d 2 -p cbr -e 556 -c 2 -a 0 -i 0 -k RTR
h -t 15.080558368 -s 0 -d 2 -p cbr -e 556 -c 2 -a 0 -i 0 -k RTR
+ -t 15.086663665 -s 2 -d 3 -p cbr -e 556 -c 2 -a 0 -i 0 -k RTR 
- -t 15.086663665 -s 2 -d 3 -p cbr -e 556 -c 2 -a 0 -i 0 -k RTR
h -t 15.086663665 -s 2 -d 3 -p cbr -e 556 -c 2 -a 0 -i 0 -k RTR
+ -t 15.088952198 -s 4 -d 0 -p DSR -e 60 -c 2 -a 0 -i 8 -k RTR 
- -t 15.088952198 -s 4 -d 0 -p DSR -e 60 -c 2 -a 0 -i 8 -k RTR
h -t 15.088952198 -s 4 -d 0 -p DSR -e 60 -c 2 -a 0 -i 8 -k RTR
r -t 15.097725662 -s 3 -d 3 -p cbr -e 512 -c 2 -a 0 -i 0 -k AGT
+ -t 15.097912575 -s 1 -d -1 -p cbr -e 512 -c 2 -a 0 -i 10 -k AGT 
- -t 15.097912575 -s 1 -d -1 -p cbr -e 512 -c 2 -a 0 -i 10 -k AGT
h -t 15.097912575 -s 1 -d -1 -p cbr -e 512 -c 2 -a 0 -i 10 -k AGT
+ -t 15.097912575 -s 1 -d 0 -p cbr -e 556 -c 2 -a 0 -i 10 -k RTR 
- -t 15.097912575 -s 1 -d 0 -p cbr -e 556 -c 2 -a 0 -i 10 -k RTR
h -t 15.097912575 -s 1 -d 0 -p cbr -e 556 -c 2 -a 0 -i 10 -k RTR
+ -t 15.100026664 -s 6 -d 2 -p DSR -e 68 -c 2 -a 0 -i 9 -k RTR 
- -t 15.100026664 -s 6 -d 2 -p DSR -e 68 -c 2 -a 0 -i 9 -k RTR
h -t 15.100026664 -s 6 -d 2 -p DSR -e 68 -c 2 -a 0 -i 9 -k RTR
+ -t 15.102508097 -s 2 -d 0 -p DSR -e 68 -c 2 -a 0 -i 9 -k RTR 
- -t 15.102508097 -s 2 -d 0 -p DSR -e 68 -c 2 -a 0 -i 9 -k RTR
h -t 15.102508097 -s 2 -d 0 -p DSR -e 68 -c 2 -a 0 -i 9 -k RTR
+ -t 15.104612685 -s 1 -d 0 -p cbr -e 556 -c 2 -a 0 -i 3 -k RTR 
- -t 15.104612685 -s 1 -d 0 -p cbr -e 556 -c 2 -a 0 -i 3 -k RTR
h -t 15.104612685 -s 1 -d 0 -p cbr -e 556 -c 2 -a 0 -i 3 -k RTR
+ -t 15.109741923 -s 0 -d 2 -p cbr -e 556 -c 2 -a 0 -i 10 -k RTR 
- -t 15.109741923 -s 0 -d 2 -p cbr -e 556 -c 2 -a 0 -i 10 -k RTR
h -t 15.109741923 -s 0 -d 2 -p cbr -e 556 -c 2 -a 0 -i 10 -k RTR
+ -t 15.115647220 -s 2 -d 3 -p cbr -e 556 -c 2 -a 0 -i 10 -k RTR 
- -t 15.115647220 -s 2 -d 3 -p cbr -e 556 -c 2 -a 0 -i 10 -k RTR
h -t 15.115647220 -s 2 -d 3 -p cbr -e 556 -c 2 -a 0 -i 10 -k RTR
+ -t 15.117768517 -s 0 -d 1 -p DSR -e 68 -c 2 -a 0 -i 9 -k RTR 
- -t 15.117768517 -s 0 -d 1 -p DSR -e 68 -c 2 -a 0 -i 9 -k RTR
h -t 15.117768517 -s 0 -d 1 -p DSR -e 68 -c 2 -a 0 -i 9 -k RTR
+ -t 15.126235883 -s 0 -d 2 -p cbr -e 556 -c 2 -a 0 -i 3 -k RTR 
- -t 15.126235883 -s 0 -d 2 -p cbr -e 556 -c 2 -a 0 -i 3 -k RTR
h -t 15.126235883 -s 0 -d 2 -p cbr -e 556 -c 2 -a 0 -i 3 -k RTR
+ -t 15.132241180 -s 2 -d 3 -p cbr -e 556 -c 2 -a 0 -i 3 -k RTR 
- -t 15.132241180 -s 2 -d 3 -p cbr -e 556 -c 2 -a 0 -i 3 -k RTR
h -t 15.132241180 -s 2 -d 3 -p cbr -e 556 -c 2 -a 0 -i 3 -k RTR
r -t 15.138427300 -s 3 -d 3 -p cbr -e 512 -c 2 -a 0 -i 10 -k AGT
r -t 15.144854128 -s 3 -d 3 -p cbr -e 512 -c 2 -a 0 -i 3 -k AGT
+ -t 15.148013243 -s 0 -d 1 -p DSR -e 60 -c 2 -a 0 -i 8 -k RTR 
- -t 15.148013243 -s 0 -d 1 -p DSR -e 60 -c 2 -a 0 -i 8 -k RTR
h -t 15.148013243 -s 0 -d 1 -p DSR -e 60 -c 2 -a 0 -i 8 -k RTR
+ -t 15.168283840 -s 1 -d -1 -p cbr -e 512 -c 2 -a 0 -i 11 -k AGT 
- -t 15.168283840 -s 1 -d -1 -p cbr -e 512 -c 2 -a 0 -i 11 -k AGT
h -t 15.168283840 -s 1 -d -1 -p cbr -e 512 -c 2 -a 0 -i 11 -k AGT
+ -t 15.168283840 -s 1 -d 0 -p cbr -e 532 -c 2 -a 0 -i 11 -k RTR 
- -t 15.168283840 -s 1 -d 0 -p cbr -e 532 -c 2 -a 0 -i 11 -k RTR
h -t 15.168283840 -s 1 -d 0 -p cbr -e 532 -c 2 -a 0 -i 11 -k RTR
+ -t 15.174193523 -s 0 -d 2 -p cbr -e 532 -c 2 -a 0 -i 11 -k RTR 
- -t 15.174193523 -s 0 -d 2 -p cbr -e 532 -c 2 -a 0 -i 11 -k RTR
h -t 15.174193523 -s 0 -d 2 -p cbr -e 532 -c 2 -a 0 -i 11 -k RTR
+ -t 15.180066820 -s 2 -d 3 -p cbr -e 532 -c 2 -a 0 -i 11 -k RTR 
- -t 15.180066820 -s 2 -d 3 -p cbr -e 532 -c 2 -a 0 -i 11 -k RTR
h -t 15.180066820 -s 2 -d 3 -p cbr -e 532 -c 2 -a 0 -i 11 -k RTR
r -t 15.186060941 -s 3 -d 3 -p cbr -e 512 -c 2 -a 0 -i 11 -k AGT
+ -t 15.221638632 -s 1 -d -1 -p cbr -e 512 -c 2 -a 0 -i 12 -k AGT 
- -t 15.221638632 -s 1 -d -1 -p cbr -e 512 -c 2 -a 0 -i 12 -k AGT
h -t 15.221638632 -s 1 -d -1 -p cbr -e 512 -c 2 -a 0 -i 12 -k AGT
+ -t 15.221638632 -s 1 -d 0 -p cbr -e 532 -c 2 -a 0 -i 12 -k RTR 
- -t 15.221638632 -s 1 -d 0 -p cbr -e 532 -c 2 -a 0 -i 12 -k RTR
h -t 15.221638632 -s 1 -d 0 -p cbr -e 532 -c 2 -a 0 -i 12 -k RTR
+ -t 15.227128315 -s 0 -d 2 -p cbr -e 532 -c 2 -a 0 -i 12 -k RTR 
- -t 15.227128315 -s 0 -d 2 -p cbr -e 532 -c 2 -a 0 -i 12 -k RTR
h -t 15.227128315 -s 0 -d 2 -p cbr -e 532 -c 2 -a 0 -i 12 -k RTR
+ -t 15.233181612 -s 2 -d 3 -p cbr -e 532 -c 2 -a 0 -i 12 -k RTR 
- -t 15.233181612 -s 2 -d 3 -p cbr -e 532 -c 2 -a 0 -i 12 -k RTR
h -t 15.233181612 -s 2 -d 3 -p cbr -e 532 -c 2 -a 0 -i 12 -k RTR
r -t 15.238935732 -s 3 -d 3 -p cbr -e 512 -c 2 -a 0 -i 12 -k AGT
+ -t 15.263469074 -s 1 -d -1 -p cbr -e 512 -c 2 -a 0 -i 13 -k AGT 
- -t 15.263469074 -s 1 -d -1 -p cbr -e 512 -c 2 -a 0 -i 13 -k AGT
h -t 15.263469074 -s 1 -d -1 -p cbr -e 512 -c 2 -a 0 -i 13 -k AGT
+ -t 15.263469074 -s 1 -d 0 -p cbr -e 532 -c 2 -a 0 -i 13 -k RTR 
- -t 15.263469074 -s 1 -d 0 -p cbr -e 532 -c 2 -a 0 -i 13 -k RTR
h -t 15.263469074 -s 1 -d 0 -p cbr -e 532 -c 2 -a 0 -i 13 -k RTR
+ -t 15.269158757 -s 0 -d 2 -p cbr -e 532 -c 2 -a 0 -i 13 -k RTR 
- -t 15.269158757 -s 0 -d 2 -p cbr -e 532 -c 2 -a 0 -i 13 -k RTR
h -t 15.269158757 -s 0 -d 2 -p cbr -e 532 -c 2 -a 0 -i 13 -k RTR
+ -t 15.275072054 -s 2 -d 3 -p cbr -e 532 -c 2 -a 0 -i 13 -k RTR 
- -t 15.275072054 -s 2 -d 3 -p cbr -e 532 -c 2 -a 0 -i 13 -k RTR
h -t 15.275072054 -s 2 -d 3 -p cbr -e 532 -c 2 -a 0 -i 13 -k RTR
r -t 15.280886175 -s 3 -d 3 -p cbr -e 512 -c 2 -a 0 -i 13 -k AGT
+ -t 15.328483475 -s 1 -d -1 -p cbr -e 512 -c 2 -a 0 -i 14 -k AGT 
- -t 15.328483475 -s 1 -d -1 -p cbr -e 512 -c 2 -a 0 -i 14 -k AGT
h -t 15.328483475 -s 1 -d -1 -p cbr -e 512 -c 2 -a 0 -i 14 -k AGT
+ -t 15.328483475 -s 1 -d 0 -p cbr -e 532 -c 2 -a 0 -i 14 -k RTR 
- -t 15.328483475 -s 1 -d 0 -p cbr -e 532 -c 2 -a 0 -i 14 -k RTR
h -t 15.328483475 -s 1 -d 0 -p cbr -e 532 -c 2 -a 0 -i 14 -k RTR
+ -t 15.334453158 -s 0 -d 2 -p cbr -e 532 -c 2 -a 0 -i 14 -k RTR 
- -t 15.334453158 -s 0 -d 2 -p cbr -e 532 -c 2 -a 0 -i 14 -k RTR
h -t 15.334453158 -s 0 -d 2 -p cbr -e 532 -c 2 -a 0 -i 14 -k RTR
+ -t 15.340246455 -s 2 -d 3 -p cbr -e 532 -c 2 -a 0 -i 14 -k RTR 
- -t 15.340246455 -s 2 -d 3 -p cbr -e 532 -c 2 -a 0 -i 14 -k RTR
h -t 15.340246455 -s 2 -d 3 -p cbr -e 532 -c 2 -a 0 -i 14 -k RTR
r -t 15.346420575 -s 3 -d 3 -p cbr -e 512 -c 2 -a 0 -i 14 -k AGT
+ -t 15.388833653 -s 1 -d -1 -p cbr -e 512 -c 2 -a 0 -i 15 -k AGT 
- -t 15.388833653 -s 1 -d -1 -p cbr -e 512 -c 2 -a 0 -i 15 -k AGT
h -t 15.388833653 -s 1 -d -1 -p cbr -e 512 -c 2 -a 0 -i 15 -k AGT
+ -t 15.388833653 -s 1 -d 0 -p cbr -e 532 -c 2 -a 0 -i 15 -k RTR 
- -t 15.388833653 -s 1 -d 0 -p cbr -e 532 -c 2 -a 0 -i 15 -k RTR
h -t 15.388833653 -s 1 -d 0 -p cbr -e 532 -c 2 -a 0 -i 15 -k RTR
+ -t 15.394543336 -s 0 -d 2 -p cbr -e 532 -c 2 -a 0 -i 15 -k RTR 
- -t 15.394543336 -s 0 -d 2 -p cbr -e 532 -c 2 -a 0 -i 15 -k RTR
h -t 15.394543336 -s 0 -d 2 -p cbr -e 532 -c 2 -a 0 -i 15 -k RTR
+ -t 15.400396633 -s 2 -d 3 -p cbr -e 532 -c 2 -a 0 -i 15 -k RTR 
- -t 15.400396633 -s 2 -d 3 -p cbr -e 532 -c 2 -a 0 -i 15 -k RTR
h -t 15.400396633 -s 2 -d 3 -p cbr -e 532 -c 2 -a 0 -i 15 -k RTR
r -t 15.406330754 -s 3 -d 3 -p cbr -e 512 -c 2 -a 0 -i 15 -k AGT
+ -t 15.443472770 -s 1 -d -1 -p cbr -e 512 -c 2 -a 0 -i 16 -k AGT 
- -t 15.443472770 -s 1 -d -1 -p cbr -e 512 -c 2 -a 0 -i 16 -k AGT
h -t 15.443472770 -s 1 -d -1 -p cbr -e 512 -c 2 -a 0 -i 16 -k AGT
+ -t 15.443472770 -s 1 -d 0 -p cbr -e 532 -c 2 -a 0 -i 16 -k RTR 
- -t 15.443472770 -s 1 -d 0 -p cbr -e 532 -c 2 -a 0 -i 16 -k RTR
h -t 15.443472770 -s 1 -d 0 -p cbr -e 532 -c 2 -a 0 -i 16 -k RTR
+ -t 15.448922453 -s 0 -d 2 -p cbr -e 532 -c 2 -a 0 -i 16 -k RTR 
- -t 15.448922453 -s 0 -d 2 -p cbr -e 532 -c 2 -a 0 -i 16 -k RTR
h -t 15.448922453 -s 0 -d 2 -p cbr -e 532 -c 2 -a 0 -i 16 -k RTR
+ -t 15.454815750 -s 2 -d 3 -p cbr -e 532 -c 2 -a 0 -i 16 -k RTR 
- -t 15.454815750 -s 2 -d 3 -p cbr -e 532 -c 2 -a 0 -i 16 -k RTR
h -t 15.454815750 -s 2 -d 3 -p cbr -e 532 -c 2 -a 0 -i 16 -k RTR
r -t 15.461029870 -s 3 -d 3 -p cbr -e 512 -c 2 -a 0 -i 16 -k AGT
+ -t 15.513150969 -s 1 -d -1 -p cbr -e 512 -c 2 -a 0 -i 17 -k AGT 
- -t 15.513150969 -s 1 -d -1 -p cbr -e 512 -c 2 -a 0 -i 17 -k AGT
h -t 15.513150969 -s 1 -d -1 -p cbr -e 512 -c 2 -a 0 -i 17 -k AGT
+ -t 15.513150969 -s 1 -d 0 -p cbr -e 532 -c 2 -a 0 -i 17 -k RTR 
- -t 15.513150969 -s 1 -d 0 -p cbr -e 532 -c 2 -a 0 -i 17 -k RTR
h -t 15.513150969 -s 1 -d 0 -p cbr -e 532 -c 2 -a 0 -i 17 -k RTR
+ -t 15.518860652 -s 0 -d 2 -p cbr -e 532 -c 2 -a 0 -i 17 -k RTR 
- -t 15.518860652 -s 0 -d 2 -p cbr -e 532 -c 2 -a 0 -i 17 -k RTR
h -t 15.518860652 -s 0 -d 2 -p cbr -e 532 -c 2 -a 0 -i 17 -k RTR
+ -t 15.524913949 -s 2 -d 3 -p cbr -e 532 -c 2 -a 0 -i 17 -k RTR 
- -t 15.524913949 -s 2 -d 3 -p cbr -e 532 -c 2 -a 0 -i 17 -k RTR
h -t 15.524913949 -s 2 -d 3 -p cbr -e 532 -c 2 -a 0 -i 17 -k RTR
r -t 15.530668070 -s 3 -d 3 -p cbr -e 512 -c 2 -a 0 -i 17 -k AGT
+ -t 15.578792485 -s 1 -d -1 -p cbr -e 512 -c 2 -a 0 -i 18 -k AGT 
- -t 15.578792485 -s 1 -d -1 -p cbr -e 512 -c 2 -a 0 -i 18 -k AGT
h -t 15.578792485 -s 1 -d -1 -p cbr -e 512 -c 2 -a 0 -i 18 -k AGT
+ -t 15.578792485 -s 1 -d 0 -p cbr -e 532 -c 2 -a 0 -i 18 -k RTR 
- -t 15.578792485 -s 1 -d 0 -p cbr -e 532 -c 2 -a 0 -i 18 -k RTR
h -t 15.578792485 -s 1 -d 0 -p cbr -e 532 -c 2 -a 0 -i 18 -k RTR
+ -t 15.584362168 -s 0 -d 2 -p cbr -e 532 -c 2 -a 0 -i 18 -k RTR 
- -t 15.584362168 -s 0 -d 2 -p cbr -e 532 -c 2 -a 0 -i 18 -k RTR
h -t 15.584362168 -s 0 -d 2 -p cbr -e 532 -c 2 -a 0 -i 18 -k RTR
+ -t 15.590435465 -s 2 -d 3 -p cbr -e 532 -c 2 -a 0 -i 18 -k RTR 
- -t 15.590435465 -s 2 -d 3 -p cbr -e 532 -c 2 -a 0 -i 18 -k RTR
h -t 15.590435465 -s 2 -d 3 -p cbr -e 532 -c 2 -a 0 -i 18 -k RTR
r -t 15.596189585 -s 3 -d 3 -p cbr -e 512 -c 2 -a 0 -i 18 -k AGT
+ -t 15.651437653 -s 1 -d -1 -p cbr -e 512 -c 2 -a 0 -i 19 -k AGT 
- -t 15.651437653 -s 1 -d -1 -p cbr -e 512 -c 2 -a 0 -i 19 -k AGT
h -t 15.651437653 -s 1 -d -1 -p cbr -e 512 -c 2 -a 0 -i 19 -k AGT
+ -t 15.651437653 -s 1 -d 0 -p cbr -e 532 -c 2 -a 0 -i 19 -k RTR 
- -t 15.651437653 -s 1 -d 0 -p cbr -e 532 -c 2 -a 0 -i 19 -k RTR
h -t 15.651437653 -s 1 -d 0 -p cbr -e 532 -c 2 -a 0 -i 19 -k RTR
+ -t 15.657407336 -s 0 -d 2 -p cbr -e 532 -c 2 -a 0 -i 19 -k RTR 
- -t 15.657407336 -s 0 -d 2 -p cbr -e 532 -c 2 -a 0 -i 19 -k RTR
h -t 15.657407336 -s 0 -d 2 -p cbr -e 532 -c 2 -a 0 -i 19 -k RTR
+ -t 15.663700633 -s 2 -d 3 -p cbr -e 532 -c 2 -a 0 -i 19 -k RTR 
- -t 15.663700633 -s 2 -d 3 -p cbr -e 532 -c 2 -a 0 -i 19 -k RTR
h -t 15.663700633 -s 2 -d 3 -p cbr -e 532 -c 2 -a 0 -i 19 -k RTR
r -t 15.669874753 -s 3 -d 3 -p cbr -e 512 -c 2 -a 0 -i 19 -k AGT
+ -t 15.725593325 -s 1 -d -1 -p cbr -e 512 -c 2 -a 0 -i 20 -k AGT 
- -t 15.725593325 -s 1 -d -1 -p cbr -e 512 -c 2 -a 0 -i 20 -k AGT
h -t 15.725593325 -s 1 -d -1 -p cbr -e 512 -c 2 -a 0 -i 20 -k AGT
+ -t 15.725593325 -s 1 -d 0 -p cbr -e 532 -c 2 -a 0 -i 20 -k RTR 
- -t 15.725593325 -s 1 -d 0 -p cbr -e 532 -c 2 -a 0 -i 20 -k RTR
h -t 15.725593325 -s 1 -d 0 -p cbr -e 532 -c 2 -a 0 -i 20 -k RTR
+ -t 15.731523008 -s 0 -d 2 -p cbr -e 532 -c 2 -a 0 -i 20 -k RTR 
- -t 15.731523008 -s 0 -d 2 -p cbr -e 532 -c 2 -a 0 -i 20 -k RTR
h -t 15.731523008 -s 0 -d 2 -p cbr -e 532 -c 2 -a 0 -i 20 -k RTR
+ -t 15.737356305 -s 2 -d 3 -p cbr -e 532 -c 2 -a 0 -i 20 -k RTR 
- -t 15.737356305 -s 2 -d 3 -p cbr -e 532 -c 2 -a 0 -i 20 -k RTR
h -t 15.737356305 -s 2 -d 3 -p cbr -e 532 -c 2 -a 0 -i 20 -k RTR
r -t 15.743430426 -s 3 -d 3 -p cbr -e 512 -c 2 -a 0 -i 20 -k AGT
+ -t 15.773101505 -s 1 -d -1 -p cbr -e 512 -c 2 -a 0 -i 21 -k AGT 
- -t 15.773101505 -s 1 -d -1 -p cbr -e 512 -c 2 -a 0 -i 21 -k AGT
h -t 15.773101505 -s 1 -d -1 -p cbr -e 512 -c 2 -a 0 -i 21 -k AGT
+ -t 15.773101505 -s 1 -d 0 -p cbr -e 532 -c 2 -a 0 -i 21 -k RTR 
- -t 15.773101505 -s 1 -d 0 -p cbr -e 532 -c 2 -a 0 -i 21 -k RTR
h -t 15.773101505 -s 1 -d 0 -p cbr -e 532 -c 2 -a 0 -i 21 -k RTR
+ -t 15.778611188 -s 0 -d 2 -p cbr -e 532 -c 2 -a 0 -i 21 -k RTR 
- -t 15.778611188 -s 0 -d 2 -p cbr -e 532 -c 2 -a 0 -i 21 -k RTR
h -t 15.778611188 -s 0 -d 2 -p cbr -e 532 -c 2 -a 0 -i 21 -k RTR
+ -t 15.784564485 -s 2 -d 3 -p cbr -e 532 -c 2 -a 0 -i 21 -k RTR 
- -t 15.784564485 -s 2 -d 3 -p cbr -e 532 -c 2 -a 0 -i 21 -k RTR
h -t 15.784564485 -s 2 -d 3 -p cbr -e 532 -c 2 -a 0 -i 21 -k RTR
r -t 15.790638605 -s 3 -d 3 -p cbr -e 512 -c 2 -a 0 -i 21 -k AGT
+ -t 15.800841973 -s 1 -d -1 -p cbr -e 512 -c 2 -a 0 -i 22 -k AGT 
- -t 15.800841973 -s 1 -d -1 -p cbr -e 512 -c 2 -a 0 -i 22 -k AGT
h -t 15.800841973 -s 1 -d -1 -p cbr -e 512 -c 2 -a 0 -i 22 -k AGT
+ -t 15.800841973 -s 1 -d 0 -p cbr -e 532 -c 2 -a 0 -i 22 -k RTR 
- -t 15.800841973 -s 1 -d 0 -p cbr -e 532 -c 2 -a 0 -i 22 -k RTR
h -t 15.800841973 -s 1 -d 0 -p cbr -e 532 -c 2 -a 0 -i 22 -k RTR
+ -t 15.806371656 -s 0 -d 2 -p cbr -e 532 -c 2 -a 0 -i 22 -k RTR 
- -t 15.806371656 -s 0 -d 2 -p cbr -e 532 -c 2 -a 0 -i 22 -k RTR
h -t 15.806371656 -s 0 -d 2 -p cbr -e 532 -c 2 -a 0 -i 22 -k RTR
+ -t 15.812644953 -s 2 -d 3 -p cbr -e 532 -c 2 -a 0 -i 22 -k RTR 
- -t 15.812644953 -s 2 -d 3 -p cbr -e 532 -c 2 -a 0 -i 22 -k RTR
h -t 15.812644953 -s 2 -d 3 -p cbr -e 532 -c 2 -a 0 -i 22 -k RTR
r -t 15.818899073 -s 3 -d 3 -p cbr -e 512 -c 2 -a 0 -i 22 -k AGT
+ -t 15.836835063 -s 1 -d -1 -p cbr -e 512 -c 2 -a 0 -i 23 -k AGT 
- -t 15.836835063 -s 1 -d -1 -p cbr -e 512 -c 2 -a 0 -i 23 -k AGT
h -t 15.836835063 -s 1 -d -1 -p cbr -e 512 -c 2 -a 0 -i 23 -k AGT
+ -t 15.836835063 -s 1 -d 0 -p cbr -e 532 -c 2 -a 0 -i 23 -k RTR 
- -t 15.836835063 -s 1 -d 0 -p cbr -e 532 -c 2 -a 0 -i 23 -k RTR
h -t 15.836835063 -s 1 -d 0 -p cbr -e 532 -c 2 -a 0 -i 23 -k RTR
+ -t 15.842644746 -s 0 -d 2 -p cbr -e 532 -c 2 -a 0 -i 23 -k RTR 
- -t 15.842644746 -s 0 -d 2 -p cbr -e 532 -c 2 -a 0 -i 23 -k RTR
h -t 15.842644746 -s 0 -d 2 -p cbr -e 532 -c 2 -a 0 -i 23 -k RTR
+ -t 15.848398043 -s 2 -d 3 -p cbr -e 532 -c 2 -a 0 -i 23 -k RTR 
- -t 15.848398043 -s 2 -d 3 -p cbr -e 532 -c 2 -a 0 -i 23 -k RTR
h -t 15.848398043 -s 2 -d 3 -p cbr -e 532 -c 2 -a 0 -i 23 -k RTR
r -t 15.854712164 -s 3 -d 3 -p cbr -e 512 -c 2 -a 0 -i 23 -k AGT
+ -t 15.887603967 -s 1 -d -1 -p cbr -e 512 -c 2 -a 0 -i 24 -k AGT 
- -t 15.887603967 -s 1 -d -1 -p cbr -e 512 -c 2 -a 0 -i 24 -k AGT
h -t 15.887603967 -s 1 -d -1 -p cbr -e 512 -c 2 -a 0 -i 24 -k AGT
+ -t 15.887603967 -s 1 -d 0 -p cbr -e 532 -c 2 -a 0 -i 24 -k RTR 
- -t 15.887603967 -s 1 -d 0 -p cbr -e 532 -c 2 -a 0 -i 24 -k RTR
h -t 15.887603967 -s 1 -d 0 -p cbr -e 532 -c 2 -a 0 -i 24 -k RTR
+ -t 15.893613650 -s 0 -d 2 -p cbr -e 532 -c 2 -a 0 -i 24 -k RTR 
- -t 15.893613650 -s 0 -d 2 -p cbr -e 532 -c 2 -a 0 -i 24 -k RTR
h -t 15.893613650 -s 0 -d 2 -p cbr -e 532 -c 2 -a 0 -i 24 -k RTR
+ -t 15.899686947 -s 2 -d 3 -p cbr -e 532 -c 2 -a 0 -i 24 -k RTR 
- -t 15.899686947 -s 2 -d 3 -p cbr -e 532 -c 2 -a 0 -i 24 -k RTR
h -t 15.899686947 -s 2 -d 3 -p cbr -e 532 -c 2 -a 0 -i 24 -k RTR
r -t 15.905621068 -s 3 -d 3 -p cbr -e 512 -c 2 -a 0 -i 24 -k AGT
+ -t 15.919500227 -s 1 -d -1 -p cbr -e 512 -c 2 -a 0 -i 25 -k AGT 
- -t 15.919500227 -s 1 -d -1 -p cbr -e 512 -c 2 -a 0 -i 25 -k AGT
h -t 15.919500227 -s 1 -d -1 -p cbr -e 512 -c 2 -a 0 -i 25 -k AGT
+ -t 15.919500227 -s 1 -d 0 -p cbr -e 532 -c 2 -a 0 -i 25 -k RTR 
- -t 15.919500227 -s 1 -d 0 -p cbr -e 532 -c 2 -a 0 -i 25 -k RTR
h -t 15.919500227 -s 1 -d 0 -p cbr -e 532 -c 2 -a 0 -i 25 -k RTR
+ -t 15.925129910 -s 0 -d 2 -p cbr -e 532 -c 2 -a 0 -i 25 -k RTR 
- -t 15.925129910 -s 0 -d 2 -p cbr -e 532 -c 2 -a 0 -i 25 -k RTR
h -t 15.925129910 -s 0 -d 2 -p cbr -e 532 -c 2 -a 0 -i 25 -k RTR
+ -t 15.931143207 -s 2 -d 3 -p cbr -e 532 -c 2 -a 0 -i 25 -k RTR 
- -t 15.931143207 -s 2 -d 3 -p cbr -e 532 -c 2 -a 0 -i 25 -k RTR
h -t 15.931143207 -s 2 -d 3 -p cbr -e 532 -c 2 -a 0 -i 25 -k RTR
r -t 15.936937327 -s 3 -d 3 -p cbr -e 512 -c 2 -a 0 -i 25 -k AGT
+ -t 15.966904601 -s 1 -d -1 -p cbr -e 512 -c 2 -a 0 -i 26 -k AGT 
- -t 15.966904601 -s 1 -d -1 -p cbr -e 512 -c 2 -a 0 -i 26 -k AGT
h -t 15.966904601 -s 1 -d -1 -p cbr -e 512 -c 2 -a 0 -i 26 -k AGT
+ -t 15.966904601 -s 1 -d 0 -p cbr -e 532 -c 2 -a 0 -i 26 -k RTR 
- -t 15.966904601 -s 1 -d 0 -p cbr -e 532 -c 2 -a 0 -i 26 -k RTR
h -t 15.966904601 -s 1 -d 0 -p cbr -e 532 -c 2 -a 0 -i 26 -k RTR
+ -t 15.972774284 -s 0 -d 2 -p cbr -e 532 -c 2 -a 0 -i 26 -k RTR 
- -t 15.972774284 -s 0 -d 2 -p cbr -e 532 -c 2 -a 0 -i 26 -k RTR
h -t 15.972774284 -s 0 -d 2 -p cbr -e 532 -c 2 -a 0 -i 26 -k RTR
+ -t 15.978707581 -s 2 -d 3 -p cbr -e 532 -c 2 -a 0 -i 26 -k RTR 
- -t 15.978707581 -s 2 -d 3 -p cbr -e 532 -c 2 -a 0 -i 26 -k RTR
h -t 15.978707581 -s 2 -d 3 -p cbr -e 532 -c 2 -a 0 -i 26 -k RTR
r -t 15.984981701 -s 3 -d 3 -p cbr -e 512 -c 2 -a 0 -i 26 -k AGT
+ -t 16.031404192 -s 1 -d -1 -p cbr -e 512 -c 2 -a 0 -i 27 -k AGT 
- -t 16.031404192 -s 1 -d -1 -p cbr -e 512 -c 2 -a 0 -i 27 -k AGT
h -t 16.031404192 -s 1 -d -1 -p cbr -e 512 -c 2 -a 0 -i 27 -k AGT
+ -t 16.031404192 -s 1 -d 0 -p cbr -e 532 -c 2 -a 0 -i 27 -k RTR 
- -t 16.031404192 -s 1 -d 0 -p cbr -e 532 -c 2 -a 0 -i 27 -k RTR
h -t 16.031404192 -s 1 -d 0 -p cbr -e 532 -c 2 -a 0 -i 27 -k RTR
+ -t 16.037433875 -s 0 -d 2 -p cbr -e 532 -c 2 -a 0 -i 27 -k RTR 
- -t 16.037433875 -s 0 -d 2 -p cbr -e 532 -c 2 -a 0 -i 27 -k RTR
h -t 16.037433875 -s 0 -d 2 -p cbr -e 532 -c 2 -a 0 -i 27 -k RTR
+ -t 16.043687172 -s 2 -d 3 -p cbr -e 532 -c 2 -a 0 -i 27 -k RTR 
- -t 16.043687172 -s 2 -d 3 -p cbr -e 532 -c 2 -a 0 -i 27 -k RTR
h -t 16.043687172 -s 2 -d 3 -p cbr -e 532 -c 2 -a 0 -i 27 -k RTR
r -t 16.049981292 -s 3 -d 3 -p cbr -e 512 -c 2 -a 0 -i 27 -k AGT
+ -t 16.100012694 -s 1 -d -1 -p cbr -e 512 -c 2 -a 0 -i 28 -k AGT 
- -t 16.100012694 -s 1 -d -1 -p cbr -e 512 -c 2 -a 0 -i 28 -k AGT
h -t 16.100012694 -s 1 -d -1 -p cbr -e 512 -c 2 -a 0 -i 28 -k AGT
+ -t 16.100012694 -s 1 -d 0 -p cbr -e 532 -c 2 -a 0 -i 28 -k RTR 
- -t 16.100012694 -s 1 -d 0 -p cbr -e 532 -c 2 -a 0 -i 28 -k RTR
h -t 16.100012694 -s 1 -d 0 -p cbr -e 532 -c 2 -a 0 -i 28 -k RTR
+ -t 16.105662377 -s 0 -d 2 -p cbr -e 532 -c 2 -a 0 -i 28 -k RTR 
- -t 16.105662377 -s 0 -d 2 -p cbr -e 532 -c 2 -a 0 -i 28 -k RTR
h -t 16.105662377 -s 0 -d 2 -p cbr -e 532 -c 2 -a 0 -i 28 -k RTR
+ -t 16.111975674 -s 2 -d 3 -p cbr -e 532 -c 2 -a 0 -i 28 -k RTR 
- -t 16.111975674 -s 2 -d 3 -p cbr -e 532 -c 2 -a 0 -i 28 -k RTR
h -t 16.111975674 -s 2 -d 3 -p cbr -e 532 -c 2 -a 0 -i 28 -k RTR
r -t 16.117809794 -s 3 -d 3 -p cbr -e 512 -c 2 -a 0 -i 28 -k AGT
+ -t 16.167439356 -s 1 -d -1 -p cbr -e 512 -c 2 -a 0 -i 29 -k AGT 
- -t 16.167439356 -s 1 -d -1 -p cbr -e 512 -c 2 -a 0 -i 29 -k AGT
h -t 16.167439356 -s 1 -d -1 -p cbr -e 512 -c 2 -a 0 -i 29 -k AGT
+ -t 16.167439356 -s 1 -d 0 -p cbr -e 532 -c 2 -a 0 -i 29 -k RTR 
- -t 16.167439356 -s 1 -d 0 -p cbr -e 532 -c 2 -a 0 -i 29 -k RTR
h -t 16.167439356 -s 1 -d 0 -p cbr -e 532 -c 2 -a 0 -i 29 -k RTR
+ -t 16.173009039 -s 0 -d 2 -p cbr -e 532 -c 2 -a 0 -i 29 -k RTR 
- -t 16.173009039 -s 0 -d 2 -p cbr -e 532 -c 2 -a 0 -i 29 -k RTR
h -t 16.173009039 -s 0 -d 2 -p cbr -e 532 -c 2 -a 0 -i 29 -k RTR
+ -t 16.178782336 -s 2 -d 3 -p cbr -e 532 -c 2 -a 0 -i 29 -k RTR 
- -t 16.178782336 -s 2 -d 3 -p cbr -e 532 -c 2 -a 0 -i 29 -k RTR
h -t 16.178782336 -s 2 -d 3 -p cbr -e 532 -c 2 -a 0 -i 29 -k RTR
r -t 16.184496457 -s 3 -d 3 -p cbr -e 512 -c 2 -a 0 -i 29 -k AGT
+ -t 16.209807411 -s 1 -d -1 -p cbr -e 512 -c 2 -a 0 -i 30 -k AGT 
- -t 16.209807411 -s 1 -d -1 -p cbr -e 512 -c 2 -a 0 -i 30 -k AGT
h -t 16.209807411 -s 1 -d -1 -p cbr -e 512 -c 2 -a 0 -i 30 -k AGT
+ -t 16.209807411 -s 1 -d 0 -p cbr -e 532 -c 2 -a 0 -i 30 -k RTR 
- -t 16.209807411 -s 1 -d 0 -p cbr -e 532 -c 2 -a 0 -i 30 -k RTR
h -t 16.209807411 -s 1 -d 0 -p cbr -e 532 -c 2 -a 0 -i 30 -k RTR
+ -t 16.215257094 -s 0 -d 2 -p cbr -e 532 -c 2 -a 0 -i 30 -k RTR 
- -t 16.215257094 -s 0 -d 2 -p cbr -e 532 -c 2 -a 0 -i 30 -k RTR
h -t 16.215257094 -s 0 -d 2 -p cbr -e 532 -c 2 -a 0 -i 30 -k RTR
+ -t 16.221250391 -s 2 -d 3 -p cbr -e 532 -c 2 -a 0 -i 30 -k RTR 
- -t 16.221250391 -s 2 -d 3 -p cbr -e 532 -c 2 -a 0 -i 30 -k RTR
h -t 16.221250391 -s 2 -d 3 -p cbr -e 532 -c 2 -a 0 -i 30 -k RTR
r -t 16.227204512 -s 3 -d 3 -p cbr -e 512 -c 2 -a 0 -i 30 -k AGT
+ -t 16.249839472 -s 1 -d -1 -p cbr -e 512 -c 2 -a 0 -i 31 -k AGT 
- -t 16.249839472 -s 1 -d -1 -p cbr -e 512 -c 2 -a 0 -i 31 -k AGT
h -t 16.249839472 -s 1 -d -1 -p cbr -e 512 -c 2 -a 0 -i 31 -k AGT
+ -t 16.249839472 -s 1 -d 0 -p cbr -e 532 -c 2 -a 0 -i 31 -k RTR 
- -t 16.249839472 -s 1 -d 0 -p cbr -e 532 -c 2 -a 0 -i 31 -k RTR
h -t 16.249839472 -s 1 -d 0 -p cbr -e 532 -c 2 -a 0 -i 31 -k RTR
+ -t 16.255469155 -s 0 -d 2 -p cbr -e 532 -c 2 -a 0 -i 31 -k RTR 
- -t 16.255469155 -s 0 -d 2 -p cbr -e 532 -c 2 -a 0 -i 31 -k RTR
h -t 16.255469155 -s 0 -d 2 -p cbr -e 532 -c 2 -a 0 -i 31 -k RTR
+ -t 16.261302452 -s 2 -d 3 -p cbr -e 532 -c 2 -a 0 -i 31 -k RTR 
- -t 16.261302452 -s 2 -d 3 -p cbr -e 532 -c 2 -a 0 -i 31 -k RTR
h -t 16.261302452 -s 2 -d 3 -p cbr -e 532 -c 2 -a 0 -i 31 -k RTR
r -t 16.267096573 -s 3 -d 3 -p cbr -e 512 -c 2 -a 0 -i 31 -k AGT
+ -t 16.284469189 -s 1 -d -1 -p cbr -e 512 -c 2 -a 0 -i 32 -k AGT 
- -t 16.284469189 -s 1 -d -1 -p cbr -e 512 -c 2 -a 0 -i 32 -k AGT
h -t 16.284469189 -s 1 -d -1 -p cbr -e 512 -c 2 -a 0 -i 32 -k AGT
+ -t 16.284469189 -s 1 -d 0 -p cbr -e 532 -c 2 -a 0 -i 32 -k RTR 
- -t 16.284469189 -s 1 -d 0 -p cbr -e 532 -c 2 -a 0 -i 32 -k RTR
h -t 16.284469189 -s 1 -d 0 -p cbr -e 532 -c 2 -a 0 -i 32 -k RTR
+ -t 16.290258872 -s 0 -d 2 -p cbr -e 532 -c 2 -a 0 -i 32 -k RTR 
- -t 16.290258872 -s 0 -d 2 -p cbr -e 532 -c 2 -a 0 -i 32 -k RTR
h -t 16.290258872 -s 0 -d 2 -p cbr -e 532 -c 2 -a 0 -i 32 -k RTR
+ -t 16.296092169 -s 2 -d 3 -p cbr -e 532 -c 2 -a 0 -i 32 -k RTR 
- -t 16.296092169 -s 2 -d 3 -p cbr -e 532 -c 2 -a 0 -i 32 -k RTR
h -t 16.296092169 -s 2 -d 3 -p cbr -e 532 -c 2 -a 0 -i 32 -k RTR
r -t 16.301846289 -s 3 -d 3 -p cbr -e 512 -c 2 -a 0 -i 32 -k AGT
+ -t 16.323930971 -s 1 -d -1 -p cbr -e 512 -c 2 -a 0 -i 33 -k AGT 
- -t 16.323930971 -s 1 -d -1 -p cbr -e 512 -c 2 -a 0 -i 33 -k AGT
h -t 16.323930971 -s 1 -d -1 -p cbr -e 512 -c 2 -a 0 -i 33 -k AGT
+ -t 16.323930971 -s 1 -d 0 -p cbr -e 532 -c 2 -a 0 -i 33 -k RTR 
- -t 16.323930971 -s 1 -d 0 -p cbr -e 532 -c 2 -a 0 -i 33 -k RTR
h -t 16.323930971 -s 1 -d 0 -p cbr -e 532 -c 2 -a 0 -i 33 -k RTR
+ -t 16.329540654 -s 0 -d 2 -p cbr -e 532 -c 2 -a 0 -i 33 -k RTR 
- -t 16.329540654 -s 0 -d 2 -p cbr -e 532 -c 2 -a 0 -i 33 -k RTR
h -t 16.329540654 -s 0 -d 2 -p cbr -e 532 -c 2 -a 0 -i 33 -k RTR
+ -t 16.335513951 -s 2 -d 3 -p cbr -e 532 -c 2 -a 0 -i 33 -k RTR 
- -t 16.335513951 -s 2 -d 3 -p cbr -e 532 -c 2 -a 0 -i 33 -k RTR
h -t 16.335513951 -s 2 -d 3 -p cbr -e 532 -c 2 -a 0 -i 33 -k RTR
r -t 16.341548072 -s 3 -d 3 -p cbr -e 512 -c 2 -a 0 -i 33 -k AGT
+ -t 16.389746597 -s 1 -d -1 -p cbr -e 512 -c 2 -a 0 -i 34 -k AGT 
- -t 16.389746597 -s 1 -d -1 -p cbr -e 512 -c 2 -a 0 -i 34 -k AGT
h -t 16.389746597 -s 1 -d -1 -p cbr -e 512 -c 2 -a 0 -i 34 -k AGT
+ -t 16.389746597 -s 1 -d 0 -p cbr -e 532 -c 2 -a 0 -i 34 -k RTR 
- -t 16.389746597 -s 1 -d 0 -p cbr -e 532 -c 2 -a 0 -i 34 -k RTR
h -t 16.389746597 -s 1 -d 0 -p cbr -e 532 -c 2 -a 0 -i 34 -k RTR
+ -t 16.395796280 -s 0 -d 2 -p cbr -e 532 -c 2 -a 0 -i 34 -k RTR 
- -t 16.395796280 -s 0 -d 2 -p cbr -e 532 -c 2 -a 0 -i 34 -k RTR
h -t 16.395796280 -s 0 -d 2 -p cbr -e 532 -c 2 -a 0 -i 34 -k RTR
+ -t 16.401589577 -s 2 -d 3 -p cbr -e 532 -c 2 -a 0 -i 34 -k RTR 
- -t 16.401589577 -s 2 -d 3 -p cbr -e 532 -c 2 -a 0 -i 34 -k RTR
h -t 16.401589577 -s 2 -d 3 -p cbr -e 532 -c 2 -a 0 -i 34 -k RTR
r -t 16.407303697 -s 3 -d 3 -p cbr -e 512 -c 2 -a 0 -i 34 -k AGT
+ -t 16.416022373 -s 1 -d -1 -p cbr -e 512 -c 2 -a 0 -i 35 -k AGT 
- -t 16.416022373 -s 1 -d -1 -p cbr -e 512 -c 2 -a 0 -i 35 -k AGT
h -t 16.416022373 -s 1 -d -1 -p cbr -e 512 -c 2 -a 0 -i 35 -k AGT
+ -t 16.416022373 -s 1 -d 0 -p cbr -e 532 -c 2 -a 0 -i 35 -k RTR 
- -t 16.416022373 -s 1 -d 0 -p cbr -e 532 -c 2 -a 0 -i 35 -k RTR
h -t 16.416022373 -s 1 -d 0 -p cbr -e 532 -c 2 -a 0 -i 35 -k RTR
+ -t 16.421712056 -s 0 -d 2 -p cbr -e 532 -c 2 -a 0 -i 35 -k RTR 
- -t 16.421712056 -s 0 -d 2 -p cbr -e 532 -c 2 -a 0 -i 35 -k RTR
h -t 16.421712056 -s 0 -d 2 -p cbr -e 532 -c 2 -a 0 -i 35 -k RTR
+ -t 16.427685353 -s 2 -d 3 -p cbr -e 532 -c 2 -a 0 -i 35 -k RTR 
- -t 16.427685353 -s 2 -d 3 -p cbr -e 532 -c 2 -a 0 -i 35 -k RTR
h -t 16.427685353 -s 2 -d 3 -p cbr -e 532 -c 2 -a 0 -i 35 -k RTR
r -t 16.433939473 -s 3 -d 3 -p cbr -e 512 -c 2 -a 0 -i 35 -k AGT
+ -t 16.477229523 -s 1 -d -1 -p cbr -e 512 -c 2 -a 0 -i 36 -k AGT 
- -t 16.477229523 -s 1 -d -1 -p cbr -e 512 -c 2 -a 0 -i 36 -k AGT
h -t 16.477229523 -s 1 -d -1 -p cbr -e 512 -c 2 -a 0 -i 36 -k AGT
+ -t 16.477229523 -s 1 -d 0 -p cbr -e 532 -c 2 -a 0 -i 36 -k RTR 
- -t 16.477229523 -s 1 -d 0 -p cbr -e 532 -c 2 -a 0 -i 36 -k RTR
h -t 16.477229523 -s 1 -d 0 -p cbr -e 532 -c 2 -a 0 -i 36 -k RTR
+ -t 16.482899206 -s 0 -d 2 -p cbr -e 532 -c 2 -a 0 -i 36 -k RTR 
- -t 16.482899206 -s 0 -d 2 -p cbr -e 532 -c 2 -a 0 -i 36 -k RTR
h -t 16.482899206 -s 0 -d 2 -p cbr -e 532 -c 2 -a 0 -i 36 -k RTR
+ -t 16.489072502 -s 2 -d 3 -p cbr -e 532 -c 2 -a 0 -i 36 -k RTR 
- -t 16.489072502 -s 2 -d 3 -p cbr -e 532 -c 2 -a 0 -i 36 -k RTR
h -t 16.489072502 -s 2 -d 3 -p cbr -e 532 -c 2 -a 0 -i 36 -k RTR
r -t 16.495106623 -s 3 -d 3 -p cbr -e 512 -c 2 -a 0 -i 36 -k AGT
+ -t 16.547888017 -s 1 -d -1 -p cbr -e 512 -c 2 -a 0 -i 37 -k AGT 
- -t 16.547888017 -s 1 -d -1 -p cbr -e 512 -c 2 -a 0 -i 37 -k AGT
h -t 16.547888017 -s 1 -d -1 -p cbr -e 512 -c 2 -a 0 -i 37 -k AGT
+ -t 16.547888017 -s 1 -d 0 -p cbr -e 532 -c 2 -a 0 -i 37 -k RTR 
- -t 16.547888017 -s 1 -d 0 -p cbr -e 532 -c 2 -a 0 -i 37 -k RTR
h -t 16.547888017 -s 1 -d 0 -p cbr -e 532 -c 2 -a 0 -i 37 -k RTR
+ -t 16.553417700 -s 0 -d 2 -p cbr -e 532 -c 2 -a 0 -i 37 -k RTR 
- -t 16.553417700 -s 0 -d 2 -p cbr -e 532 -c 2 -a 0 -i 37 -k RTR
h -t 16.553417700 -s 0 -d 2 -p cbr -e 532 -c 2 -a 0 -i 37 -k RTR
+ -t 16.559410997 -s 2 -d 3 -p cbr -e 532 -c 2 -a 0 -i 37 -k RTR 
- -t 16.559410997 -s 2 -d 3 -p cbr -e 532 -c 2 -a 0 -i 37 -k RTR
h -t 16.559410997 -s 2 -d 3 -p cbr -e 532 -c 2 -a 0 -i 37 -k RTR
r -t 16.565325117 -s 3 -d 3 -p cbr -e 512 -c 2 -a 0 -i 37 -k AGT
+ -t 16.615112093 -s 1 -d -1 -p cbr -e 512 -c 2 -a 0 -i 38 -k AGT 
- -t 16.615112093 -s 1 -d -1 -p cbr -e 512 -c 2 -a 0 -i 38 -k AGT
h -t 16.615112093 -s 1 -d -1 -p cbr -e 512 -c 2 -a 0 -i 38 -k AGT
+ -t 16.615112093 -s 1 -d 0 -p cbr -e 532 -c 2 -a 0 -i 38 -k RTR 
- -t 16.615112093 -s 1 -d 0 -p cbr -e 532 -c 2 -a 0 -i 38 -k RTR
h -t 16.615112093 -s 1 -d 0 -p cbr -e 532 -c 2 -a 0 -i 38 -k RTR