Sconfig 0.00000 tap: on snoop: rts? on errs? on
Sconfig 0.00000 salvage: on !bd replies? on
Sconfig 0.00000 grat error: on grat reply: on
Sconfig 0.00000 $reply for props: on ring 0 search: on
Sconfig 0.00000 using MOBICACHE
s 15.000000000 _0_ AGT  --- 0 cbr 512 [0 0 0 0] ------- [0:0 10:0 32 0] [0] 0 0
r 15.000000000 _0_ RTR  --- 0 cbr 512 [0 0 0 0] ------- [0:0 10:0 32 0] [0] 0 0
s 15.009232193 _0_ RTR  --- 1 DSR 32 [0 0 0 0] ------- [0:255 10:255 32 0] 1 [1 1] [0 1 0 0->0] [0 0 0 0->0]
r 15.010204860 _3_ RTR  --- 1 DSR 32 [0 ffffffff 0 800] ------- [0:255 10:255 32 0] 1 [1 1] [0 1 0 0->0] [0 0 0 0->0]
r 15.010204860 _1_ RTR  --- 1 DSR 32 [0 ffffffff 0 800] ------- [0:255 10:255 32 0] 1 [1 1] [0 1 0 0->0] [0 0 0 0->0]
s 15.060579376 _0_ RTR  --- 3 DSR 32 [0 0 0 0] ------- [0:255 10:255 32 0] 1 [1 2] [0 2 0 0->16] [0 0 0 0->0]
r 15.061812043 _3_ RTR  --- 3 DSR 32 [0 ffffffff 0 800] ------- [0:255 10:255 32 0] 1 [1 2] [0 2 0 0->16] [0 0 0 0->0]
r 15.061812043 _1_ RTR  --- 3 DSR 32 [0 ffffffff 0 800] ------- [0:255 10:255 32 0] 1 [1 2] [0 2 0 0->16] [0 0 0 0->0]
f 15.063539142 _3_ RTR  --- 3 DSR 48 [0 ffffffff 0 800] ------- [0:255 10:255 32 0] 2 [1 2] [0 2 0 0->16] [0 0 0 0->0]
r 15.064439475 _6_ RTR  --- 3 DSR 48 [0 ffffffff 3 800] ------- [0:255 10:255 32 0] 2 [1 2] [0 2 0 0->16] [0 0 0 0->0]
r 15.064439809 _0_ RTR  --- 3 DSR 48 [0 ffffffff 3 800] ------- [0:255 10:255 32 0] 2 [1 2] [0 2 0 0->16] [0 0 0 0->0]
r 15.064439809 _9_ RTR  --- 3 DSR 48 [0 ffffffff 3 800] ------- [0:255 10:255 32 0] 2 [1 2] [0 2 0 0->16] [0 0 0 0->0]
r 15.064439809 _4_ RTR  --- 3 DSR 48 [0 ffffffff 3 800] ------- [0:255 10:255 32 0] 2 [1 2] [0 2 0 0->16] [0 0 0 0->0]
r 15.064439887 _7_ RTR  --- 3 DSR 48 [0 ffffffff 3 800] ------- [0:255 10:255 32 0] 2 [1 2] [0 2 0 0->16] [0 0 0 0->0]
r 15.064439887 _13_ RTR  --- 3 DSR 48 [0 ffffffff 3 800] ------- [0:255 10:255 32 0] 2 [1 2] [0 2 0 0->16] [0 0 0 0->0]
f 15.064832402 _1_ RTR  --- 3 DSR 48 [0 ffffffff 0 800] ------- [0:255 10:255 32 0] 2 [1 2] [0 2 0 0->16] [0 0 0 0->0]
s 15.064903256 _0_ AGT  --- 4 cbr 512 [0 0 0 0] ------- [0:0 10:0 32 0] [1] 0 0
r 15.064903256 _0_ RTR  --- 4 cbr 512 [0 0 0 0] ------- [0:0 10:0 32 0] [1] 0 0
r 15.066213069 _0_ RTR  --- 3 DSR 48 [0 ffffffff 1 800] ------- [0:255 10:255 32 0] 2 [1 2] [0 2 0 0->16] [0 0 0 0->0]
r 15.066213069 _4_ RTR  --- 3 DSR 48 [0 ffffffff 1 800] ------- [0:255 10:255 32 0] 2 [1 2] [0 2 0 0->16] [0 0 0 0->0]
r 15.066213069 _2_ RTR  --- 3 DSR 48 [0 ffffffff 1 800] ------- [0:255 10:255 32 0] 2 [1 2] [0 2 0 0->16] [0 0 0 0->0]
f 15.067868588 _13_ RTR  --- 3 DSR 68 [0 ffffffff 3 800] ------- [0:255 10:255 32 0] 3 [1 2] [0 2 0 0->16] [0 0 0 0->0]
f 15.068419453 _6_ RTR  --- 3 DSR 68 [0 ffffffff 3 800] ------- [0:255 10:255 32 0] 3 [1 2] [0 2 0 0->16] [0 0 0 0->0]
r 15.069068588 _7_ RTR  --- 3 DSR 68 [0 ffffffff d 800] ------- [0:255 10:255 32 0] 3 [1 2] [0 2 0 0->16] [0 0 0 0->0]
r 15.069068921 _10_ RTR  --- 3 DSR 68 [0 ffffffff d 800] ------- [0:255 10:255 32 0] 3 [1 2] [0 2 0 0->16] [0 0 0 0->0]
r 15.069068921 _4_ RTR  --- 3 DSR 68 [0 ffffffff d 800] ------- [0:255 10:255 32 0] 3 [1 2] [0 2 0 0->16] [0 0 0 0->0]
r 15.069069254 _6_ RTR  --- 3 DSR 68 [0 ffffffff d 800] ------- [0:255 10:255 32 0] 3 [1 2] [0 2 0 0->16] [0 0 0 0->0]
r 15.069069254 _8_ RTR  --- 3 DSR 68 [0 ffffffff d 800] ------- [0:255 10:255 32 0] 3 [1 2] [0 2 0 0->16] [0 0 0 0->0]
r 15.069069254 _12_ RTR  --- 3 DSR 68 [0 ffffffff d 800] ------- [0:255 10:255 32 0] 3 [1 2] [0 2 0 0->16] [0 0 0 0->0]
r 15.069069333 _9_ RTR  --- 3 DSR 68 [0 ffffffff d 800] ------- [0:255 10:255 32 0] 3 [1 2] [0 2 0 0->16] [0 0 0 0->0]
r 15.069069333 _3_ RTR  --- 3 DSR 68 [0 ffffffff d 800] ------- [0:255 10:255 32 0] 3 [1 2] [0 2 0 0->16] [0 0 0 0->0]
r 15.069069333 _5_ RTR  --- 3 DSR 68 [0 ffffffff d 800] ------- [0:255 10:255 32 0] 3 [1 2] [0 2 0 0->16] [0 0 0 0->0]
r 15.069069333 _11_ RTR  --- 3 DSR 68 [0 ffffffff d 800] ------- [0:255 10:255 32 0] 3 [1 2] [0 2 0 0->16] [0 0 0 0->0]
f 15.070080268 _8_ RTR  --- 3 DSR 92 [0 ffffffff d 800] ------- [0:255 10:255 32 0] 4 [1 2] [0 2 0 0->16] [0 0 0 0->0]
r 15.070159588 _3_ RTR  --- 3 DSR 68 [0 ffffffff 6 800] ------- [0:255 10:255 32 0] 3 [1 2] [0 2 0 0->16] [0 0 0 0->0]
r 15.070159588 _9_ RTR  --- 3 DSR 68 [0 ffffffff 6 800] ------- [0:255 10:255 32 0] 3 [1 2] [0 2 0 0->16] [0 0 0 0->0]
r 15.070159921 _7_ RTR  --- 3 DSR 68 [0 ffffffff 6 800] ------- [0:255 10:255 32 0] 3 [1 2] [0 2 0 0->16] [0 0 0 0->0]
r 15.070159921 _13_ RTR  --- 3 DSR 68 [0 ffffffff 6 800] ------- [0:255 10:255 32 0] 3 [1 2] [0 2 0 0->16] [0 0 0 0->0]
r 15.070160000 _4_ RTR  --- 3 DSR 68 [0 ffffffff 6 800] ------- [0:255 10:255 32 0] 3 [1 2] [0 2 0 0->16] [0 0 0 0->0]
r 15.070160000 _10_ RTR  --- 3 DSR 68 [0 ffffffff 6 800] ------- [0:255 10:255 32 0] 3 [1 2] [0 2 0 0->16] [0 0 0 0->0]
f 15.070428537 _4_ RTR  --- 3 DSR 68 [0 ffffffff 3 800] ------- [0:255 10:255 32 0] 3 [1 2] [0 2 0 0->16] [0 0 0 0->0]
f 15.071013536 _9_ RTR  --- 3 DSR 68 [0 ffffffff 3 800] ------- [0:255 10:255 32 0] 3 [1 2] [0 2 0 0->16] [0 0 0 0->0]
r 15.071708871 _7_ RTR  --- 3 DSR 68 [0 ffffffff 4 800] ------- [0:255 10:255 32 0] 3 [1 2] [0 2 0 0->16] [0 0 0 0->0]
r 15.071708871 _13_ RTR  --- 3 DSR 68 [0 ffffffff 4 800] ------- [0:255 10:255 32 0] 3 [1 2] [0 2 0 0->16] [0 0 0 0->0]
r 15.071709204 _1_ RTR  --- 3 DSR 68 [0 ffffffff 4 800] ------- [0:255 10:255 32 0] 3 [1 2] [0 2 0 0->16] [0 0 0 0->0]
r 15.071709204 _3_ RTR  --- 3 DSR 68 [0 ffffffff 4 800] ------- [0:255 10:255 32 0] 3 [1 2] [0 2 0 0->16] [0 0 0 0->0]
r 15.071709204 _10_ RTR  --- 3 DSR 68 [0 ffffffff 4 800] ------- [0:255 10:255 32 0] 3 [1 2] [0 2 0 0->16] [0 0 0 0->0]
r 15.071709204 _5_ RTR  --- 3 DSR 68 [0 ffffffff 4 800] ------- [0:255 10:255 32 0] 3 [1 2] [0 2 0 0->16] [0 0 0 0->0]
r 15.071709283 _6_ RTR  --- 3 DSR 68 [0 ffffffff 4 800] ------- [0:255 10:255 32 0] 3 [1 2] [0 2 0 0->16] [0 0 0 0->0]
r 15.071709283 _8_ RTR  --- 3 DSR 68 [0 ffffffff 4 800] ------- [0:255 10:255 32 0] 3 [1 2] [0 2 0 0->16] [0 0 0 0->0]
r 15.071709283 _12_ RTR  --- 3 DSR 68 [0 ffffffff 4 800] ------- [0:255 10:255 32 0] 3 [1 2] [0 2 0 0->16] [0 0 0 0->0]
s 15.072655150 _10_ RTR  --- 8 DSR 60 [0 0 0 0] ------- [10:255 0:255 254 4] 4 [0 2] [1 2 4 0->10] [0 0 0 0->0]
f 15.073062120 _12_ RTR  --- 3 DSR 92 [0 ffffffff d 800] ------- [0:255 10:255 32 0] 4 [1 2] [0 2 0 0->16] [0 0 0 0->0]
r 15.073351283 _12_ RTR  --- 3 DSR 92 [0 ffffffff 8 800] ------- [0:255 10:255 32 0] 4 [1 2] [0 2 0 0->16] [0 0 0 0->0]
r 15.073351616 _5_ RTR  --- 3 DSR 92 [0 ffffffff 8 800] ------- [0:255 10:255 32 0] 4 [1 2] [0 2 0 0->16] [0 0 0 0->0]
r 15.073351616 _11_ RTR  --- 3 DSR 92 [0 ffffffff 8 800] ------- [0:255 10:255 32 0] 4 [1 2] [0 2 0 0->16] [0 0 0 0->0]
r 15.073351949 _13_ RTR  --- 3 DSR 92 [0 ffffffff 8 800] ------- [0:255 10:255 32 0] 4 [1 2] [0 2 0 0->16] [0 0 0 0->0]
r 15.073351949 _7_ RTR  --- 3 DSR 92 [0 ffffffff 8 800] ------- [0:255 10:255 32 0] 4 [1 2] [0 2 0 0->16] [0 0 0 0->0]
r 15.073352028 _10_ RTR  --- 3 DSR 92 [0 ffffffff 8 800] ------- [0:255 10:255 32 0] 4 [1 2] [0 2 0 0->16] [0 0 0 0->0]
r 15.073352028 _4_ RTR  --- 3 DSR 92 [0 ffffffff 8 800] ------- [0:255 10:255 32 0] 4 [1 2] [0 2 0 0->16] [0 0 0 0->0]
s 15.073646808 _10_ RTR  --- 9 DSR 68 [0 0 0 0] ------- [10:255 0:255 254 8] 5 [0 2] [1 2 5 0->10] [0 0 0 0->0]
f 15.074323865 _7_ RTR  --- 3 DSR 68 [0 ffffffff 3 800] ------- [0:255 10:255 32 0] 3 [1 2] [0 2 0 0->16] [0 0 0 0->0]
f 15.074716052 _2_ RTR  --- 3 DSR 68 [0 ffffffff 1 800] ------- [0:255 10:255 32 0] 3 [1 2] [0 2 0 0->16] [0 0 0 0->0]
r 15.074833283 _8_ RTR  --- 3 DSR 92 [0 ffffffff c 800] ------- [0:255 10:255 32 0] 4 [1 2] [0 2 0 0->16] [0 0 0 0->0]
r 15.074833616 _11_ RTR  --- 3 DSR 92 [0 ffffffff c 800] ------- [0:255 10:255 32 0] 4 [1 2] [0 2 0 0->16] [0 0 0 0->0]
r 15.074833616 _5_ RTR  --- 3 DSR 92 [0 ffffffff c 800] ------- [0:255 10:255 32 0] 4 [1 2] [0 2 0 0->16] [0 0 0 0->0]
r 15.074833949 _13_ RTR  --- 3 DSR 92 [0 ffffffff c 800] ------- [0:255 10:255 32 0] 4 [1 2] [0 2 0 0->16] [0 0 0 0->0]
r 15.074833949 _7_ RTR  --- 3 DSR 92 [0 ffffffff c 800] ------- [0:255 10:255 32 0] 4 [1 2] [0 2 0 0->16] [0 0 0 0->0]
r 15.074834028 _10_ RTR  --- 3 DSR 92 [0 ffffffff c 800] ------- [0:255 10:255 32 0] 4 [1 2] [0 2 0 0->16] [0 0 0 0->0]
r 15.074834028 _4_ RTR  --- 3 DSR 92 [0 ffffffff c 800] ------- [0:255 10:255 32 0] 4 [1 2] [0 2 0 0->16] [0 0 0 0->0]
r 15.076578028 _4_ RTR  --- 8 DSR 60 [13a 4 a 800] ------- [10:255 0:255 254 4] 4 [0 2] [1 2 4 0->10] [0 0 0 0->0]
f 15.076578028 _4_ RTR  --- 8 DSR 60 [13a 4 a 800] ------- [10:255 0:255 253 3] 4 [0 2] [1 2 4 0->10] [0 0 0 0->0]
f 15.076823094 _11_ RTR  --- 3 DSR 92 [0 ffffffff d 800] ------- [0:255 10:255 32 0] 4 [1 2] [0 2 0 0->16] [0 0 0 0->0]
s 15.077188122 _10_ RTR  --- 6 DSR 60 [0 0 0 0] ------- [10:255 0:255 254 13] 4 [0 2] [1 2 4 0->10] [0 0 0 0->0]
s 15.077760093 _10_ RTR  --- 10 DSR 68 [0 0 0 0] ------- [10:255 0:255 254 12] 5 [0 2] [1 2 5 0->10] [0 0 0 0->0]
s 15.078450462 _10_ RTR  --- 7 DSR 60 [0 0 0 0] ------- [10:255 0:255 254 6] 4 [0 2] [1 2 4 0->10] [0 0 0 0->0]
r 15.078580931 _8_ RTR  --- 9 DSR 68 [13a 8 a 800] ------- [10:255 0:255 254 8] 5 [0 2] [1 2 5 0->10] [0 0 0 0->0]
f 15.078580931 _8_ RTR  --- 9 DSR 68 [13a 8 a 800] ------- [10:255 0:255 253 13] 5 [0 2] [1 2 5 0->10] [0 0 0 0->0]
f 15.078910392 _5_ RTR  --- 3 DSR 92 [0 ffffffff d 800] ------- [0:255 10:255 32 0] 4 [1 2] [0 2 0 0->16] [0 0 0 0->0]
r 15.079985598 _13_ RTR  --- 3 DSR 68 [0 ffffffff 7 800] ------- [0:255 10:255 32 0] 3 [1 2] [0 2 0 0->16] [0 0 0 0->0]
r 15.079985931 _4_ RTR  --- 3 DSR 68 [0 ffffffff 7 800] ------- [0:255 10:255 32 0] 3 [1 2] [0 2 0 0->16] [0 0 0 0->0]
r 15.079985931 _10_ RTR  --- 3 DSR 68 [0 ffffffff 7 800] ------- [0:255 10:255 32 0] 3 [1 2] [0 2 0 0->16] [0 0 0 0->0]
r 15.079986264 _6_ RTR  --- 3 DSR 68 [0 ffffffff 7 800] ------- [0:255 10:255 32 0] 3 [1 2] [0 2 0 0->16] [0 0 0 0->0]
r 15.079986264 _8_ RTR  --- 3 DSR 68 [0 ffffffff 7 800] ------- [0:255 10:255 32 0] 3 [1 2] [0 2 0 0->16] [0 0 0 0->0]
r 15.079986264 _12_ RTR  --- 3 DSR 68 [0 ffffffff 7 800] ------- [0:255 10:255 32 0] 3 [1 2] [0 2 0 0->16] [0 0 0 0->0]
r 15.079986343 _9_ RTR  --- 3 DSR 68 [0 ffffffff 7 800] ------- [0:255 10:255 32 0] 3 [1 2] [0 2 0 0->16] [0 0 0 0->0]
r 15.079986343 _3_ RTR  --- 3 DSR 68 [0 ffffffff 7 800] ------- [0:255 10:255 32 0] 3 [1 2] [0 2 0 0->16] [0 0 0 0->0]
r 15.079986343 _5_ RTR  --- 3 DSR 68 [0 ffffffff 7 800] ------- [0:255 10:255 32 0] 3 [1 2] [0 2 0 0->16] [0 0 0 0->0]
r 15.079986343 _11_ RTR  --- 3 DSR 68 [0 ffffffff 7 800] ------- [0:255 10:255 32 0] 3 [1 2] [0 2 0 0->16] [0 0 0 0->0]
r 15.081248676 _8_ RTR  --- 3 DSR 92 [0 ffffffff 5 800] ------- [0:255 10:255 32 0] 4 [1 2] [0 2 0 0->16] [0 0 0 0->0]
r 15.081248676 _12_ RTR  --- 3 DSR 92 [0 ffffffff 5 800] ------- [0:255 10:255 32 0] 4 [1 2] [0 2 0 0->16] [0 0 0 0->0]
r 15.081249010 _2_ RTR  --- 3 DSR 92 [0 ffffffff 5 800] ------- [0:255 10:255 32 0] 4 [1 2] [0 2 0 0->16] [0 0 0 0->0]
r 15.081249010 _4_ RTR  --- 3 DSR 92 [0 ffffffff 5 800] ------- [0:255 10:255 32 0] 4 [1 2] [0 2 0 0->16] [0 0 0 0->0]
r 15.081249010 _11_ RTR  --- 3 DSR 92 [0 ffffffff 5 800] ------- [0:255 10:255 32 0] 4 [1 2] [0 2 0 0->16] [0 0 0 0->0]
r 15.081249088 _13_ RTR  --- 3 DSR 92 [0 ffffffff 5 800] ------- [0:255 10:255 32 0] 4 [1 2] [0 2 0 0->16] [0 0 0 0->0]
r 15.081249088 _7_ RTR  --- 3 DSR 92 [0 ffffffff 5 800] ------- [0:255 10:255 32 0] 4 [1 2] [0 2 0 0->16] [0 0 0 0->0]
r 15.082591343 _8_ RTR  --- 3 DSR 92 [0 ffffffff b 800] ------- [0:255 10:255 32 0] 4 [1 2] [0 2 0 0->16] [0 0 0 0->0]
r 15.082591343 _12_ RTR  --- 3 DSR 92 [0 ffffffff b 800] ------- [0:255 10:255 32 0] 4 [1 2] [0 2 0 0->16] [0 0 0 0->0]
r 15.082591676 _5_ RTR  --- 3 DSR 92 [0 ffffffff b 800] ------- [0:255 10:255 32 0] 4 [1 2] [0 2 0 0->16] [0 0 0 0->0]
r 15.082591676 _10_ RTR  --- 3 DSR 92 [0 ffffffff b 800] ------- [0:255 10:255 32 0] 4 [1 2] [0 2 0 0->16] [0 0 0 0->0]
r 15.082591755 _13_ RTR  --- 3 DSR 92 [0 ffffffff b 800] ------- [0:255 10:255 32 0] 4 [1 2] [0 2 0 0->16] [0 0 0 0->0]
r 15.082591755 _7_ RTR  --- 3 DSR 92 [0 ffffffff b 800] ------- [0:255 10:255 32 0] 4 [1 2] [0 2 0 0->16] [0 0 0 0->0]
r 15.084359343 _13_ RTR  --- 9 DSR 68 [13a d 8 800] ------- [10:255 0:255 253 13] 5 [0 2] [1 2 5 0->10] [0 0 0 0->0]
f 15.084359343 _13_ RTR  --- 9 DSR 68 [13a d 8 800] ------- [10:255 0:255 252 3] 5 [0 2] [1 2 5 0->10] [0 0 0 0->0]
s 15.085762506 _10_ RTR  --- 11 DSR 60 [0 0 0 0] ------- [10:255 0:255 254 7] 4 [0 2] [1 2 4 0->10] [0 0 0 0->0]
r 15.086397912 _6_ RTR  --- 7 DSR 60 [13a 6 a 800] ------- [10:255 0:255 254 6] 4 [0 2] [1 2 4 0->10] [0 0 0 0->0]
f 15.086397912 _6_ RTR  --- 7 DSR 60 [13a 6 a 800] ------- [10:255 0:255 253 3] 4 [0 2] [1 2 4 0->10] [0 0 0 0->0]
r 15.088395658 _7_ RTR  --- 11 DSR 60 [13a 7 a 800] ------- [10:255 0:255 254 7] 4 [0 2] [1 2 4 0->10] [0 0 0 0->0]
f 15.088395658 _7_ RTR  --- 11 DSR 60 [13a 7 a 800] ------- [10:255 0:255 253 3] 4 [0 2] [1 2 4 0->10] [0 0 0 0->0]
r 15.090433991 _3_ RTR  --- 8 DSR 60 [13a 3 4 800] ------- [10:255 0:255 253 3] 4 [0 2] [1 2 4 0->10] [0 0 0 0->0]
f 15.090433991 _3_ RTR  --- 8 DSR 60 [13a 3 4 800] ------- [10:255 0:255 252 0] 4 [0 2] [1 2 4 0->10] [0 0 0 0->0]
s 15.090950995 _10_ RTR  --- 12 DSR 68 [0 0 0 0] ------- [10:255 0:255 254 11] 5 [0 2] [1 2 5 0->10] [0 0 0 0->0]
r 15.092412972 _3_ RTR  --- 11 DSR 60 [13a 3 7 800] ------- [10:255 0:255 253 3] 4 [0 2] [1 2 4 0->10] [0 0 0 0->0]
f 15.092412972 _3_ RTR  --- 11 DSR 60 [13a 3 7 800] ------- [10:255 0:255 252 0] 4 [0 2] [1 2 4 0->10] [0 0 0 0->0]
r 15.093857972 _6_ RTR  --- 3 DSR 68 [0 ffffffff 9 800] ------- [0:255 10:255 32 0] 3 [1 2] [0 2 0 0->16] [0 0 0 0->0]
r 15.093858306 _3_ RTR  --- 3 DSR 68 [0 ffffffff 9 800] ------- [0:255 10:255 32 0] 3 [1 2] [0 2 0 0->16] [0 0 0 0->0]
r 15.093858306 _10_ RTR  --- 3 DSR 68 [0 ffffffff 9 800] ------- [0:255 10:255 32 0] 3 [1 2] [0 2 0 0->16] [0 0 0 0->0]
r 15.096435901 _3_ RTR  --- 9 DSR 68 [13a 3 d 800] ------- [10:255 0:255 252 3] 5 [0 2] [1 2 5 0->10] [0 0 0 0->0]
f 15.096435901 _3_ RTR  --- 9 DSR 68 [13a 3 d 800] ------- [10:255 0:255 251 0] 5 [0 2] [1 2 5 0->10] [0 0 0 0->0]
s 15.097915177 _10_ RTR  --- 13 DSR 60 [0 0 0 0] ------- [10:255 0:255 254 9] 4 [0 2] [1 2 4 0->10] [0 0 0 0->0]
r 15.098413234 _3_ RTR  --- 7 DSR 60 [13a 3 6 800] ------- [10:255 0:255 253 3] 4 [0 2] [1 2 4 0->10] [0 0 0 0->0]
f 15.098413234 _3_ RTR  --- 7 DSR 60 [13a 3 6 800] ------- [10:255 0:255 252 0] 4 [0 2] [1 2 4 0->10] [0 0 0 0->0]
r 15.100491234 _0_ RTR  --- 8 DSR 60 [13a 0 3 800] ------- [10:255 0:255 252 0] 4 [0 2] [1 2 4 0->10] [0 0 0 0->0]
SFESTs 15.100491234 _0_ 0 [0 -> 10] 1(1) to 3 [0 |3 4 10 ]
SFESTs 15.100491234 _0_ 4 [0 -> 10] 1(1) to 3 [0 |3 4 10 ]
s 15.100491234 _0_ RTR  --- 0 cbr 556 [0 0 0 0] ------- [0:0 10:0 32 3] [0] 0 0
r 15.102429901 _0_ RTR  --- 7 DSR 60 [13a 0 3 800] ------- [10:255 0:255 252 0] 4 [0 2] [1 2 4 0->10] [0 0 0 0->0]
r 15.108475901 _3_ RTR  --- 0 cbr 556 [13a 3 0 800] ------- [0:0 10:0 32 3] [0] 1 0
f 15.108475901 _3_ RTR  --- 0 cbr 556 [13a 3 0 800] ------- [0:0 10:0 31 4] [0] 1 0
r 15.110657901 _0_ RTR  --- 9 DSR 68 [13a 0 3 800] ------- [10:255 0:255 251 0] 5 [0 2] [1 2 5 0->10] [0 0 0 0->0]
r 15.112856568 _0_ RTR  --- 11 DSR 60 [13a 0 3 800] ------- [10:255 0:255 252 0] 4 [0 2] [1 2 4 0->10] [0 0 0 0->0]
s 15.115934652 _0_ AGT  --- 14 cbr 512 [0 0 0 0] ------- [0:0 10:0 32 0] [2] 0 0
r 15.115934652 _0_ RTR  --- 14 cbr 512 [0 0 0 0] ------- [0:0 10:0 32 0] [2] 0 0
SFESTs 15.115934652 _0_ 14 [0 -> 10] 1(1) to 3 [0 |3 4 10 ]
s 15.115934652 _0_ RTR  --- 14 cbr 556 [0 0 0 0] ------- [0:0 10:0 32 3] [2] 0 0
r 15.119223234 _4_ RTR  --- 0 cbr 556 [13a 4 3 800] ------- [0:0 10:0 31 4] [0] 2 0
f 15.119223234 _4_ RTR  --- 0 cbr 556 [13a 4 3 800] ------- [0:0 10:0 30 10] [0] 2 0
r 15.125229234 _10_ RTR  --- 0 cbr 556 [13a a 4 800] ------- [0:0 10:0 30 10] [0] 3 0
r 15.125229234 _10_ AGT  --- 0 cbr 512 [13a a 4 800] ------- [0:0 10:0 30 10] [0] 3 0
r 15.127571470 _12_ RTR  --- 10 DSR 68 [13a c a 800] ------- [10:255 0:255 254 12] 5 [0 2] [1 2 5 0->10] [0 0 0 0->0]
f 15.127571470 _12_ RTR  --- 10 DSR 68 [13a c a 800] ------- [10:255 0:255 253 13] 5 [0 2] [1 2 5 0->10] [0 0 0 0->0]
r 15.129733470 _13_ RTR  --- 10 DSR 68 [13a d c 800] ------- [10:255 0:255 253 13] 5 [0 2] [1 2 5 0->10] [0 0 0 0->0]
f 15.129733470 _13_ RTR  --- 10 DSR 68 [13a d c 800] ------- [10:255 0:255 252 3] 5 [0 2] [1 2 5 0->10] [0 0 0 0->0]
s 15.130491234 _0_ RTR  --- 4 cbr 556 [0 0 0 0] ------- [0:0 10:0 32 3] [1] 0 0
r 15.131855707 _3_ RTR  --- 10 DSR 68 [13a 3 d 800] ------- [10:255 0:255 252 3] 5 [0 2] [1 2 5 0->10] [0 0 0 0->0]
f 15.131855707 _3_ RTR  --- 10 DSR 68 [13a 3 d 800] ------- [10:255 0:255 251 0] 5 [0 2] [1 2 5 0->10] [0 0 0 0->0]
r 15.133937707 _0_ RTR  --- 10 DSR 68 [13a 0 3 800] ------- [10:255 0:255 251 0] 5 [0 2] [1 2 5 0->10] [0 0 0 0->0]
r 15.136361197 _9_ RTR  --- 13 DSR 60 [13a 9 a 800] ------- [10:255 0:255 254 9] 4 [0 2] [1 2 4 0->10] [0 0 0 0->0]
f 15.136361197 _9_ RTR  --- 13 DSR 60 [13a 9 a 800] ------- [10:255 0:255 253 3] 4 [0 2] [1 2 4 0->10] [0 0 0 0->0]
r 15.138719197 _3_ RTR  --- 13 DSR 60 [13a 3 9 800] ------- [10:255 0:255 253 3] 4 [0 2] [1 2 4 0->10] [0 0 0 0->0]
f 15.138719197 _3_ RTR  --- 13 DSR 60 [13a 3 9 800] ------- [10:255 0:255 252 0] 4 [0 2] [1 2 4 0->10] [0 0 0 0->0]
r 15.144715864 _3_ RTR  --- 14 cbr 556 [13a 3 0 800] ------- [0:0 10:0 32 3] [2] 1 0
f 15.144715864 _3_ RTR  --- 14 cbr 556 [13a 3 0 800] ------- [0:0 10:0 31 4] [2] 1 0
r 15.146693864 _0_ RTR  --- 13 DSR 60 [13a 0 3 800] ------- [10:255 0:255 252 0] 4 [0 2] [1 2 4 0->10] [0 0 0 0->0]
r 15.152839864 _3_ RTR  --- 4 cbr 556 [13a 3 0 800] ------- [0:0 10:0 32 3] [1] 1 0
f 15.152839864 _3_ RTR  --- 4 cbr 556 [13a 3 0 800] ------- [0:0 10:0 31 4] [1] 1 0
r 15.159125864 _4_ RTR  --- 14 cbr 556 [13a 4 3 800] ------- [0:0 10:0 31 4] [2] 2 0
f 15.159125864 _4_ RTR  --- 14 cbr 556 [13a 4 3 800] ------- [0:0 10:0 30 10] [2] 2 0
r 15.165032531 _4_ RTR  --- 4 cbr 556 [13a 4 3 800] ------- [0:0 10:0 31 4] [1] 2 0
f 15.165032531 _4_ RTR  --- 4 cbr 556 [13a 4 3 800] ------- [0:0 10:0 30 10] [1] 2 0
s 15.165465091 _0_ AGT  --- 15 cbr 512 [0 0 0 0] ------- [0:0 10:0 32 0] [3] 0 0
r 15.165465091 _0_ RTR  --- 15 cbr 512 [0 0 0 0] ------- [0:0 10:0 32 0] [3] 0 0
SFs 15.165465091 _0_ 15 [0 -> 10] 1(0) to 3 
s 15.165465091 _0_ RTR  --- 15 cbr 532 [0 0 0 0] ------- [0:0 10:0 32 3] [3] 0 0
r 15.170998531 _10_ RTR  --- 14 cbr 556 [13a a 4 800] ------- [0:0 10:0 30 10] [2] 3 0
r 15.170998531 _10_ AGT  --- 14 cbr 512 [13a a 4 800] ------- [0:0 10:0 30 10] [2] 3 0
r 15.173100531 _11_ RTR  --- 12 DSR 68 [13a b a 800] ------- [10:255 0:255 254 11] 5 [0 2] [1 2 5 0->10] [0 0 0 0->0]
f 15.173100531 _11_ RTR  --- 12 DSR 68 [13a b a 800] ------- [10:255 0:255 253 13] 5 [0 2] [1 2 5 0->10] [0 0 0 0->0]
r 15.175098197 _13_ RTR  --- 6 DSR 60 [13a d a 800] ------- [10:255 0:255 254 13] 4 [0 2] [1 2 4 0->10] [0 0 0 0->0]
f 15.175098197 _13_ RTR  --- 6 DSR 60 [13a d a 800] ------- [10:255 0:255 253 3] 4 [0 2] [1 2 4 0->10] [0 0 0 0->0]
r 15.183133833 _10_ RTR  --- 4 cbr 556 [13a a 4 800] ------- [0:0 10:0 30 10] [1] 3 0
r 15.183133833 _10_ AGT  --- 4 cbr 512 [13a a 4 800] ------- [0:0 10:0 30 10] [1] 3 0
r 15.185132402 _3_ RTR  --- 6 DSR 60 [13a 3 d 800] ------- [10:255 0:255 253 3] 4 [0 2] [1 2 4 0->10] [0 0 0 0->0]
f 15.185132402 _3_ RTR  --- 6 DSR 60 [13a 3 d 800] ------- [10:255 0:255 252 0] 4 [0 2] [1 2 4 0->10] [0 0 0 0->0]
r 15.187490402 _0_ RTR  --- 6 DSR 60 [13a 0 3 800] ------- [10:255 0:255 252 0] 4 [0 2] [1 2 4 0->10] [0 0 0 0->0]
r 15.192543462 _13_ RTR  --- 12 DSR 68 [13a d b 800] ------- [10:255 0:255 253 13] 5 [0 2] [1 2 5 0->10] [0 0 0 0->0]
f 15.192543462 _13_ RTR  --- 12 DSR 68 [13a d b 800] ------- [10:255 0:255 252 3] 5 [0 2] [1 2 5 0->10] [0 0 0 0->0]
r 15.194625698 _3_ RTR  --- 12 DSR 68 [13a 3 d 800] ------- [10:255 0:255 252 3] 5 [0 2] [1 2 5 0->10] [0 0 0 0->0]
f 15.194625698 _3_ RTR  --- 12 DSR 68 [13a 3 d 800] ------- [10:255 0:255 251 0] 5 [0 2] [1 2 5 0->10] [0 0 0 0->0]
r 15.197227698 _0_ RTR  --- 12 DSR 68 [13a 0 3 800] ------- [10:255 0:255 251 0] 5 [0 2] [1 2 5 0->10] [0 0 0 0->0]
r 15.203781698 _3_ RTR  --- 15 cbr 532 [13a 3 0 800] ------- [0:0 10:0 32 3] [3] 1 0
SFf 15.203781698 _3_ 15 [0 -> 10] 1 to 4
f 15.203781698 _3_ RTR  --- 15 cbr 532 [13a 3 0 800] ------- [0:0 10:0 31 4] [3] 1 0
r 15.210055698 _4_ RTR  --- 15 cbr 532 [13a 4 3 800] ------- [0:0 10:0 31 4] [3] 2 0
SFf 15.210055698 _4_ 15 [0 -> 10] 1 to 10
f 15.210055698 _4_ RTR  --- 15 cbr 532 [13a 4 3 800] ------- [0:0 10:0 30 10] [3] 2 0
r 15.216089698 _10_ RTR  --- 15 cbr 532 [13a a 4 800] ------- [0:0 10:0 30 10] [3] 3 0
r 15.216089698 _10_ AGT  --- 15 cbr 512 [13a a 4 800] ------- [0:0 10:0 30 10] [3] 3 0
s 15.222320435 _0_ AGT  --- 16 cbr 512 [0 0 0 0] ------- [0:0 10:0 32 0] [4] 0 0
r 15.222320435 _0_ RTR  --- 16 cbr 512 [0 0 0 0] ------- [0:0 10:0 32 0] [4] 0 0
SFs 15.222320435 _0_ 16 [0 -> 10] 1(0) to 3 
s 15.222320435 _0_ RTR  --- 16 cbr 532 [0 0 0 0] ------- [0:0 10:0 32 3] [4] 0 0
r 15.228230435 _3_ RTR  --- 16 cbr 532 [13a 3 0 800] ------- [0:0 10:0 32 3] [4] 1 0
SFf 15.228230435 _3_ 16 [0 -> 10] 1 to 4
f 15.228230435 _3_ RTR  --- 16 cbr 532 [13a 3 0 800] ------- [0:0 10:0 31 4] [4] 1 0
r 15.234344435 _4_ RTR  --- 16 cbr 532 [13a 4 3 800] ------- [0:0 10:0 31 4] [4] 2 0
SFf 15.234344435 _4_ 16 [0 -> 10] 1 to 10
f 15.234344435 _4_ RTR  --- 16 cbr 532 [13a 4 3 800] ------- [0:0 10:0 30 10] [4] 2 0
r 15.240598435 _10_ RTR  --- 16 cbr 532 [13a a 4 800] ------- [0:0 10:0 30 10] [4] 3 0
r 15.240598435 _10_ AGT  --- 16 cbr 512 [13a a 4 800] ------- [0:0 10:0 30 10] [4] 3 0
s 15.258940251 _0_ AGT  --- 17 cbr 512 [0 0 0 0] ------- [0:0 10:0 32 0] [5] 0 0
r 15.258940251 _0_ RTR  --- 17 cbr 512 [0 0 0 0] ------- [0:0 10:0 32 0] [5] 0 0
SFs 15.258940251 _0_ 17 [0 -> 10] 1(0) to 3 
s 15.258940251 _0_ RTR  --- 17 cbr 532 [0 0 0 0] ------- [0:0 10:0 32 3] [5] 0 0
r 15.264790251 _3_ RTR  --- 17 cbr 532 [13a 3 0 800] ------- [0:0 10:0 32 3] [5] 1 0
SFf 15.264790251 _3_ 17 [0 -> 10] 1 to 4
f 15.264790251 _3_ RTR  --- 17 cbr 532 [13a 3 0 800] ------- [0:0 10:0 31 4] [5] 1 0
r 15.270904251 _4_ RTR  --- 17 cbr 532 [13a 4 3 800] ------- [0:0 10:0 31 4] [5] 2 0
SFf 15.270904251 _4_ 17 [0 -> 10] 1 to 10
f 15.270904251 _4_ RTR  --- 17 cbr 532 [13a 4 3 800] ------- [0:0 10:0 30 10] [5] 2 0
r 15.276718251 _10_ RTR  --- 17 cbr 532 [13a a 4 800] ------- [0:0 10:0 30 10] [5] 3 0
r 15.276718251 _10_ AGT  --- 17 cbr 512 [13a a 4 800] ------- [0:0 10:0 30 10] [5] 3 0
s 15.319679603 _0_ AGT  --- 18 cbr 512 [0 0 0 0] ------- [0:0 10:0 32 0] [6] 0 0
r 15.319679603 _0_ RTR  --- 18 cbr 512 [0 0 0 0] ------- [0:0 10:0 32 0] [6] 0 0
SFs 15.319679603 _0_ 18 [0 -> 10] 1(0) to 3 
s 15.319679603 _0_ RTR  --- 18 cbr 532 [0 0 0 0] ------- [0:0 10:0 32 3] [6] 0 0
r 15.325169603 _3_ RTR  --- 18 cbr 532 [13a 3 0 800] ------- [0:0 10:0 32 3] [6] 1 0
SFf 15.325169603 _3_ 18 [0 -> 10] 1 to 4
f 15.325169603 _3_ RTR  --- 18 cbr 532 [13a 3 0 800] ------- [0:0 10:0 31 4] [6] 1 0
r 15.331143603 _4_ RTR  --- 18 cbr 532 [13a 4 3 800] ------- [0:0 10:0 31 4] [6] 2 0
SFf 15.331143603 _4_ 18 [0 -> 10] 1 to 10
f 15.331143603 _4_ RTR  --- 18 cbr 532 [13a 4 3 800] ------- [0:0 10:0 30 10] [6] 2 0
r 15.337457603 _10_ RTR  --- 18 cbr 532 [13a a 4 800] ------- [0:0 10:0 30 10] [6] 3 0
r 15.337457603 _10_ AGT  --- 18 cbr 512 [13a a 4 800] ------- [0:0 10:0 30 10] [6] 3 0
s 15.365457320 _0_ AGT  --- 19 cbr 512 [0 0 0 0] ------- [0:0 10:0 32 0] [7] 0 0
r 15.365457320 _0_ RTR  --- 19 cbr 512 [0 0 0 0] ------- [0:0 10:0 32 0] [7] 0 0
SFs 15.365457320 _0_ 19 [0 -> 10] 1(0) to 3 
s 15.365457320 _0_ RTR  --- 19 cbr 532 [0 0 0 0] ------- [0:0 10:0 32 3] [7] 0 0
r 15.371407320 _3_ RTR  --- 19 cbr 532 [13a 3 0 800] ------- [0:0 10:0 32 3] [7] 1 0
SFf 15.371407320 _3_ 19 [0 -> 10] 1 to 4
f 15.371407320 _3_ RTR  --- 19 cbr 532 [13a 3 0 800] ------- [0:0 10:0 31 4] [7] 1 0
r 15.377481320 _4_ RTR  --- 19 cbr 532 [13a 4 3 800] ------- [0:0 10:0 31 4] [7] 2 0
SFf 15.377481320 _4_ 19 [0 -> 10] 1 to 10
f 15.377481320 _4_ RTR  --- 19 cbr 532 [13a 4 3 800] ------- [0:0 10:0 30 10] [7] 2 0
r 15.383515320 _10_ RTR  --- 19 cbr 532 [13a a 4 800] ------- [0:0 10:0 30 10] [7] 3 0
r 15.383515320 _10_ AGT  --- 19 cbr 512 [13a a 4 800] ------- [0:0 10:0 30 10] [7] 3 0
s 15.392201298 _0_ AGT  --- 20 cbr 512 [0 0 0 0] ------- [0:0 10:0 32 0] [8] 0 0
r 15.392201298 _0_ RTR  --- 20 cbr 512 [0 0 0 0] ------- [0:0 10:0 32 0] [8] 0 0
SFs 15.392201298 _0_ 20 [0 -> 10] 1(0) to 3 
s 15.392201298 _0_ RTR  --- 20 cbr 532 [0 0 0 0] ------- [0:0 10:0 32 3] [8] 0 0
r 15.398051298 _3_ RTR  --- 20 cbr 532 [13a 3 0 800] ------- [0:0 10:0 32 3] [8] 1 0
SFf 15.398051298 _3_ 20 [0 -> 10] 1 to 4
f 15.398051298 _3_ RTR  --- 20 cbr 532 [13a 3 0 800] ------- [0:0 10:0 31 4] [8] 1 0
r 15.404245298 _4_ RTR  --- 20 cbr 532 [13a 4 3 800] ------- [0:0 10:0 31 4] [8] 2 0
SFf 15.404245298 _4_ 20 [0 -> 10] 1 to 10
f 15.404245298 _4_ RTR  --- 20 cbr 532 [13a 4 3 800] ------- [0:0 10:0 30 10] [8] 2 0
r 15.410439298 _10_ RTR  --- 20 cbr 532 [13a a 4 800] ------- [0:0 10:0 30 10] [8] 3 0
r 15.410439298 _10_ AGT  --- 20 cbr 512 [13a a 4 800] ------- [0:0 10:0 30 10] [8] 3 0
s 15.430527007 _0_ AGT  --- 21 cbr 512 [0 0 0 0] ------- [0:0 10:0 32 0] [9] 0 0
r 15.430527007 _0_ RTR  --- 21 cbr 512 [0 0 0 0] ------- [0:0 10:0 32 0] [9] 0 0
SFs 15.430527007 _0_ 21 [0 -> 10] 1(0) to 3 
s 15.430527007 _0_ RTR  --- 21 cbr 532 [0 0 0 0] ------- [0:0 10:0 32 3] [9] 0 0
r 15.436397007 _3_ RTR  --- 21 cbr 532 [13a 3 0 800] ------- [0:0 10:0 32 3] [9] 1 0
SFf 15.436397007 _3_ 21 [0 -> 10] 1 to 4
f 15.436397007 _3_ RTR  --- 21 cbr 532 [13a 3 0 800] ------- [0:0 10:0 31 4] [9] 1 0
r 15.442431007 _4_ RTR  --- 21 cbr 532 [13a 4 3 800] ------- [0:0 10:0 31 4] [9] 2 0
SFf 15.442431007 _4_ 21 [0 -> 10] 1 to 10
f 15.442431007 _4_ RTR  --- 21 cbr 532 [13a 4 3 800] ------- [0:0 10:0 30 10] [9] 2 0
r 15.448605007 _10_ RTR  --- 21 cbr 532 [13a a 4 800] ------- [0:0 10:0 30 10] [9] 3 0
r 15.448605007 _10_ AGT  --- 21 cbr 512 [13a a 4 800] ------- [0:0 10:0 30 10] [9] 3 0
s 15.464619117 _0_ AGT  --- 22 cbr 512 [0 0 0 0] ------- [0:0 10:0 32 0] [10] 0 0
r 15.464619117 _0_ RTR  --- 22 cbr 512 [0 0 0 0] ------- [0:0 10:0 32 0] [10] 0 0
SFs 15.464619117 _0_ 22 [0 -> 10] 1(0) to 3 
s 15.464619117 _0_ RTR  --- 22 cbr 532 [0 0 0 0] ------- [0:0 10:0 32 3] [10] 0 0
r 15.470109117 _3_ RTR  --- 22 cbr 532 [13a 3 0 800] ------- [0:0 10:0 32 3] [10] 1 0
SFf 15.470109117 _3_ 22 [0 -> 10] 1 to 4
f 15.470109117 _3_ RTR  --- 22 cbr 532 [13a 3 0 800] ------- [0:0 10:0 31 4] [10] 1 0
r 15.476103117 _4_ RTR  --- 22 cbr 532 [13a 4 3 800] ------- [0:0 10:0 31 4] [10] 2 0
SFf 15.476103117 _4_ 22 [0 -> 10] 1 to 10
f 15.476103117 _4_ RTR  --- 22 cbr 532 [13a 4 3 800] ------- [0:0 10:0 30 10] [10] 2 0
r 15.481817117 _10_ RTR  --- 22 cbr 532 [13a a 4 800] ------- [0:0 10:0 30 10] [10] 3 0
r 15.481817117 _10_ AGT  --- 22 cbr 512 [13a a 4 800] ------- [0:0 10:0 30 10] [10] 3 0
s 15.533129712 _0_ AGT  --- 23 cbr 512 [0 0 0 0] ------- [0:0 10:0 32 0] [11] 0 0
r 15.533129712 _0_ RTR  --- 23 cbr 512 [0 0 0 0] ------- [0:0 10:0 32 0] [11] 0 0
SFs 15.533129712 _0_ 23 [0 -> 10] 1(0) to 3 
s 15.533129712 _0_ RTR  --- 23 cbr 532 [0 0 0 0] ------- [0:0 10:0 32 3] [11] 0 0
r 15.539159712 _3_ RTR  --- 23 cbr 532 [13a 3 0 800] ------- [0:0 10:0 32 3] [11] 1 0
SFf 15.539159712 _3_ 23 [0 -> 10] 1 to 4
f 15.539159712 _3_ RTR  --- 23 cbr 532 [13a 3 0 800] ------- [0:0 10:0 31 4] [11] 1 0
r 15.544973712 _4_ RTR  --- 23 cbr 532 [13a 4 3 800] ------- [0:0 10:0 31 4] [11] 2 0
SFf 15.544973712 _4_ 23 [0 -> 10] 1 to 10
f 15.544973712 _4_ RTR  --- 23 cbr 532 [13a 4 3 800] ------- [0:0 10:0 30 10] [11] 2 0
r 15.551287712 _10_ RTR  --- 23 cbr 532 [13a a 4 800] ------- [0:0 10:0 30 10] [11] 3 0
r 15.551287712 _10_ AGT  --- 23 cbr 512 [13a a 4 800] ------- [0:0 10:0 30 10] [11] 3 0
s 15.603365930 _0_ AGT  --- 24 cbr 512 [0 0 0 0] ------- [0:0 10:0 32 0] [12] 0 0
r 15.603365930 _0_ RTR  --- 24 cbr 512 [0 0 0 0] ------- [0:0 10:0 32 0] [12] 0 0
SFs 15.603365930 _0_ 24 [0 -> 10] 1(0) to 3 
s 15.603365930 _0_ RTR  --- 24 cbr 532 [0 0 0 0] ------- [0:0 10:0 32 3] [12] 0 0
r 15.609335930 _3_ RTR  --- 24 cbr 532 [13a 3 0 800] ------- [0:0 10:0 32 3] [12] 1 0
SFf 15.609335930 _3_ 24 [0 -> 10] 1 to 4
f 15.609335930 _3_ RTR  --- 24 cbr 532 [13a 3 0 800] ------- [0:0 10:0 31 4] [12] 1 0
r 15.615349930 _4_ RTR  --- 24 cbr 532 [13a 4 3 800] ------- [0:0 10:0 31 4] [12] 2 0
SFf 15.615349930 _4_ 24 [0 -> 10] 1 to 10
f 15.615349930 _4_ RTR  --- 24 cbr 532 [13a 4 3 800] ------- [0:0 10:0 30 10] [12] 2 0
r 15.621323930 _10_ RTR  --- 24 cbr 532 [13a a 4 800] ------- [0:0 10:0 30 10] [12] 3 0
r 15.621323930 _10_ AGT  --- 24 cbr 512 [13a a 4 800] ------- [0:0 10:0 30 10] [12] 3 0
s 15.632599330 _0_ AGT  --- 25 cbr 512 [0 0 0 0] ------- [0:0 10:0 32 0] [13] 0 0
r 15.632599330 _0_ RTR  --- 25 cbr 512 [0 0 0 0] ------- [0:0 10:0 32 0] [13] 0 0
SFs 15.632599330 _0_ 25 [0 -> 10] 1(0) to 3 
s 15.632599330 _0_ RTR  --- 25 cbr 532 [0 0 0 0] ------- [0:0 10:0 32 3] [13] 0 0
r 15.638089330 _3_ RTR  --- 25 cbr 532 [13a 3 0 800] ------- [0:0 10:0 32 3] [13] 1 0
SFf 15.638089330 _3_ 25 [0 -> 10] 1 to 4
f 15.638089330 _3_ RTR  --- 25 cbr 532 [13a 3 0 800] ------- [0:0 10:0 31 4] [13] 1 0
r 15.643883330 _4_ RTR  --- 25 cbr 532 [13a 4 3 800] ------- [0:0 10:0 31 4] [13] 2 0
SFf 15.643883330 _4_ 25 [0 -> 10] 1 to 10
f 15.643883330 _4_ RTR  --- 25 cbr 532 [13a 4 3 800] ------- [0:0 10:0 30 10] [13] 2 0
r 15.649677330 _10_ RTR  --- 25 cbr 532 [13a a 4 800] ------- [0:0 10:0 30 10] [13] 3 0
r 15.649677330 _10_ AGT  --- 25 cbr 512 [13a a 4 800] ------- [0:0 10:0 30 10] [13] 3 0
s 15.664280313 _0_ AGT  --- 26 cbr 512 [0 0 0 0] ------- [0:0 10:0 32 0] [14] 0 0
r 15.664280313 _0_ RTR  --- 26 cbr 512 [0 0 0 0] ------- [0:0 10:0 32 0] [14] 0 0
SFs 15.664280313 _0_ 26 [0 -> 10] 1(0) to 3 
s 15.664280313 _0_ RTR  --- 26 cbr 532 [0 0 0 0] ------- [0:0 10:0 32 3] [14] 0 0