n -t * -s 0  -x 100 -y 100 -Z 0 -z 30  -v circle -c black
n -t * -s 1  -x 300 -y 100 -Z 0 -z 30  -v circle -c black
n -t * -s 2  -x 500 -y 100 -Z 0 -z 30  -v circle -c black
n -t * -s 3  -x 100 -y 300 -Z 0 -z 30  -v circle -c black
n -t * -s 4  -x 300 -y 300 -Z 0 -z 30  -v circle -c black
n -t * -s 5  -x 500 -y 300 -Z 0 -z 30  -v circle -c black
n -t * -s 6  -x 100 -y 400 -Z 0 -z 30  -v circle -c black
n -t * -s 7  -x 300 -y 400 -Z 0 -z 30  -v circle -c black
n -t * -s 8  -x 500 -y 400 -Z 0 -z 30  -v circle -c black
n -t * -s 9  -x 100 -y 500 -Z 0 -z 30  -v circle -c black
n -t * -s 10  -x 300 -y 500 -Z 0 -z 30  -v circle -c black
n -t * -s 11  -x 500 -y 500 -Z 0 -z 30  -v circle -c black
n -t * -s 12  -x 500 -y 400 -Z 0 -z 30  -v circle -c black
n -t * -s 13  -x 300 -y 400 -Z 0 -z 30  -v circle -c black
V -t * -v 1.0a5 -a 0
W -t * -x 500 -y 500
A -t * -n 1 -p 0 -o 0xffffffff -c 31 -a 1
A -t * -h 1 -m 2147483647 -s 0
+ -t 15.000000000 -s 0 -d -1 -p cbr -e 512 -c 2 -a 0 -i 0 -k AGT 
- -t 15.000000000 -s 0 -d -1 -p cbr -e 512 -c 2 -a 0 -i 0 -k AGT
h -t 15.000000000 -s 0 -d -1 -p cbr -e 512 -c 2 -a 0 -i 0 -k AGT
+ -t 15.009232193 -s 0 -d -1 -p DSR -e 32 -c 2 -a 0 -i 1 -k RTR 
- -t 15.009232193 -s 0 -d -1 -p DSR -e 32 -c 2 -a 0 -i 1 -k RTR
h -t 15.009232193 -s 0 -d -1 -p DSR -e 32 -c 2 -a 0 -i 1 -k RTR
+ -t 15.060579376 -s 0 -d -1 -p DSR -e 32 -c 2 -a 0 -i 3 -k RTR 
- -t 15.060579376 -s 0 -d -1 -p DSR -e 32 -c 2 -a 0 -i 3 -k RTR
h -t 15.060579376 -s 0 -d -1 -p DSR -e 32 -c 2 -a 0 -i 3 -k RTR
+ -t 15.063539142 -s 3 -d -1 -p DSR -e 48 -c 2 -a 0 -i 3 -k RTR 
- -t 15.063539142 -s 3 -d -1 -p DSR -e 48 -c 2 -a 0 -i 3 -k RTR
h -t 15.063539142 -s 3 -d -1 -p DSR -e 48 -c 2 -a 0 -i 3 -k RTR
+ -t 15.064832402 -s 1 -d -1 -p DSR -e 48 -c 2 -a 0 -i 3 -k RTR 
- -t 15.064832402 -s 1 -d -1 -p DSR -e 48 -c 2 -a 0 -i 3 -k RTR
h -t 15.064832402 -s 1 -d -1 -p DSR -e 48 -c 2 -a 0 -i 3 -k RTR
+ -t 15.064903256 -s 0 -d -1 -p cbr -e 512 -c 2 -a 0 -i 4 -k AGT 
- -t 15.064903256 -s 0 -d -1 -p cbr -e 512 -c 2 -a 0 -i 4 -k AGT
h -t 15.064903256 -s 0 -d -1 -p cbr -e 512 -c 2 -a 0 -i 4 -k AGT
+ -t 15.067868588 -s 13 -d -1 -p DSR -e 68 -c 2 -a 0 -i 3 -k RTR 
- -t 15.067868588 -s 13 -d -1 -p DSR -e 68 -c 2 -a 0 -i 3 -k RTR
h -t 15.067868588 -s 13 -d -1 -p DSR -e 68 -c 2 -a 0 -i 3 -k RTR
+ -t 15.068419453 -s 6 -d -1 -p DSR -e 68 -c 2 -a 0 -i 3 -k RTR 
- -t 15.068419453 -s 6 -d -1 -p DSR -e 68 -c 2 -a 0 -i 3 -k RTR
h -t 15.068419453 -s 6 -d -1 -p DSR -e 68 -c 2 -a 0 -i 3 -k RTR
+ -t 15.070080268 -s 8 -d -1 -p DSR -e 92 -c 2 -a 0 -i 3 -k RTR 
- -t 15.070080268 -s 8 -d -1 -p DSR -e 92 -c 2 -a 0 -i 3 -k RTR
h -t 15.070080268 -s 8 -d -1 -p DSR -e 92 -c 2 -a 0 -i 3 -k RTR
+ -t 15.070428537 -s 4 -d -1 -p DSR -e 68 -c 2 -a 0 -i 3 -k RTR 
- -t 15.070428537 -s 4 -d -1 -p DSR -e 68 -c 2 -a 0 -i 3 -k RTR
h -t 15.070428537 -s 4 -d -1 -p DSR -e 68 -c 2 -a 0 -i 3 -k RTR
+ -t 15.071013536 -s 9 -d -1 -p DSR -e 68 -c 2 -a 0 -i 3 -k RTR 
- -t 15.071013536 -s 9 -d -1 -p DSR -e 68 -c 2 -a 0 -i 3 -k RTR
h -t 15.071013536 -s 9 -d -1 -p DSR -e 68 -c 2 -a 0 -i 3 -k RTR
+ -t 15.072655150 -s 10 -d 4 -p DSR -e 60 -c 2 -a 0 -i 8 -k RTR 
- -t 15.072655150 -s 10 -d 4 -p DSR -e 60 -c 2 -a 0 -i 8 -k RTR
h -t 15.072655150 -s 10 -d 4 -p DSR -e 60 -c 2 -a 0 -i 8 -k RTR
+ -t 15.073062120 -s 12 -d -1 -p DSR -e 92 -c 2 -a 0 -i 3 -k RTR 
- -t 15.073062120 -s 12 -d -1 -p DSR -e 92 -c 2 -a 0 -i 3 -k RTR
h -t 15.073062120 -s 12 -d -1 -p DSR -e 92 -c 2 -a 0 -i 3 -k RTR
+ -t 15.073646808 -s 10 -d 8 -p DSR -e 68 -c 2 -a 0 -i 9 -k RTR 
- -t 15.073646808 -s 10 -d 8 -p DSR -e 68 -c 2 -a 0 -i 9 -k RTR
h -t 15.073646808 -s 10 -d 8 -p DSR -e 68 -c 2 -a 0 -i 9 -k RTR
+ -t 15.074323865 -s 7 -d -1 -p DSR -e 68 -c 2 -a 0 -i 3 -k RTR 
- -t 15.074323865 -s 7 -d -1 -p DSR -e 68 -c 2 -a 0 -i 3 -k RTR
h -t 15.074323865 -s 7 -d -1 -p DSR -e 68 -c 2 -a 0 -i 3 -k RTR
+ -t 15.074716052 -s 2 -d -1 -p DSR -e 68 -c 2 -a 0 -i 3 -k RTR 
- -t 15.074716052 -s 2 -d -1 -p DSR -e 68 -c 2 -a 0 -i 3 -k RTR
h -t 15.074716052 -s 2 -d -1 -p DSR -e 68 -c 2 -a 0 -i 3 -k RTR
+ -t 15.076578028 -s 4 -d 3 -p DSR -e 60 -c 2 -a 0 -i 8 -k RTR 
- -t 15.076578028 -s 4 -d 3 -p DSR -e 60 -c 2 -a 0 -i 8 -k RTR
h -t 15.076578028 -s 4 -d 3 -p DSR -e 60 -c 2 -a 0 -i 8 -k RTR
+ -t 15.076823094 -s 11 -d -1 -p DSR -e 92 -c 2 -a 0 -i 3 -k RTR 
- -t 15.076823094 -s 11 -d -1 -p DSR -e 92 -c 2 -a 0 -i 3 -k RTR
h -t 15.076823094 -s 11 -d -1 -p DSR -e 92 -c 2 -a 0 -i 3 -k RTR
+ -t 15.077188122 -s 10 -d 13 -p DSR -e 60 -c 2 -a 0 -i 6 -k RTR 
- -t 15.077188122 -s 10 -d 13 -p DSR -e 60 -c 2 -a 0 -i 6 -k RTR
h -t 15.077188122 -s 10 -d 13 -p DSR -e 60 -c 2 -a 0 -i 6 -k RTR
+ -t 15.077760093 -s 10 -d 12 -p DSR -e 68 -c 2 -a 0 -i 10 -k RTR 
- -t 15.077760093 -s 10 -d 12 -p DSR -e 68 -c 2 -a 0 -i 10 -k RTR
h -t 15.077760093 -s 10 -d 12 -p DSR -e 68 -c 2 -a 0 -i 10 -k RTR
+ -t 15.078450462 -s 10 -d 6 -p DSR -e 60 -c 2 -a 0 -i 7 -k RTR 
- -t 15.078450462 -s 10 -d 6 -p DSR -e 60 -c 2 -a 0 -i 7 -k RTR
h -t 15.078450462 -s 10 -d 6 -p DSR -e 60 -c 2 -a 0 -i 7 -k RTR
+ -t 15.078580931 -s 8 -d 13 -p DSR -e 68 -c 2 -a 0 -i 9 -k RTR 
- -t 15.078580931 -s 8 -d 13 -p DSR -e 68 -c 2 -a 0 -i 9 -k RTR
h -t 15.078580931 -s 8 -d 13 -p DSR -e 68 -c 2 -a 0 -i 9 -k RTR
+ -t 15.078910392 -s 5 -d -1 -p DSR -e 92 -c 2 -a 0 -i 3 -k RTR 
- -t 15.078910392 -s 5 -d -1 -p DSR -e 92 -c 2 -a 0 -i 3 -k RTR
h -t 15.078910392 -s 5 -d -1 -p DSR -e 92 -c 2 -a 0 -i 3 -k RTR
+ -t 15.084359343 -s 13 -d 3 -p DSR -e 68 -c 2 -a 0 -i 9 -k RTR 
- -t 15.084359343 -s 13 -d 3 -p DSR -e 68 -c 2 -a 0 -i 9 -k RTR
h -t 15.084359343 -s 13 -d 3 -p DSR -e 68 -c 2 -a 0 -i 9 -k RTR
+ -t 15.085762506 -s 10 -d 7 -p DSR -e 60 -c 2 -a 0 -i 11 -k RTR 
- -t 15.085762506 -s 10 -d 7 -p DSR -e 60 -c 2 -a 0 -i 11 -k RTR
h -t 15.085762506 -s 10 -d 7 -p DSR -e 60 -c 2 -a 0 -i 11 -k RTR
+ -t 15.086397912 -s 6 -d 3 -p DSR -e 60 -c 2 -a 0 -i 7 -k RTR 
- -t 15.086397912 -s 6 -d 3 -p DSR -e 60 -c 2 -a 0 -i 7 -k RTR
h -t 15.086397912 -s 6 -d 3 -p DSR -e 60 -c 2 -a 0 -i 7 -k RTR
+ -t 15.088395658 -s 7 -d 3 -p DSR -e 60 -c 2 -a 0 -i 11 -k RTR 
- -t 15.088395658 -s 7 -d 3 -p DSR -e 60 -c 2 -a 0 -i 11 -k RTR
h -t 15.088395658 -s 7 -d 3 -p DSR -e 60 -c 2 -a 0 -i 11 -k RTR
+ -t 15.090433991 -s 3 -d 0 -p DSR -e 60 -c 2 -a 0 -i 8 -k RTR 
- -t 15.090433991 -s 3 -d 0 -p DSR -e 60 -c 2 -a 0 -i 8 -k RTR
h -t 15.090433991 -s 3 -d 0 -p DSR -e 60 -c 2 -a 0 -i 8 -k RTR
+ -t 15.090950995 -s 10 -d 11 -p DSR -e 68 -c 2 -a 0 -i 12 -k RTR 
- -t 15.090950995 -s 10 -d 11 -p DSR -e 68 -c 2 -a 0 -i 12 -k RTR
h -t 15.090950995 -s 10 -d 11 -p DSR -e 68 -c 2 -a 0 -i 12 -k RTR
+ -t 15.092412972 -s 3 -d 0 -p DSR -e 60 -c 2 -a 0 -i 11 -k RTR 
- -t 15.092412972 -s 3 -d 0 -p DSR -e 60 -c 2 -a 0 -i 11 -k RTR
h -t 15.092412972 -s 3 -d 0 -p DSR -e 60 -c 2 -a 0 -i 11 -k RTR
+ -t 15.096435901 -s 3 -d 0 -p DSR -e 68 -c 2 -a 0 -i 9 -k RTR 
- -t 15.096435901 -s 3 -d 0 -p DSR -e 68 -c 2 -a 0 -i 9 -k RTR
h -t 15.096435901 -s 3 -d 0 -p DSR -e 68 -c 2 -a 0 -i 9 -k RTR
+ -t 15.097915177 -s 10 -d 9 -p DSR -e 60 -c 2 -a 0 -i 13 -k RTR 
- -t 15.097915177 -s 10 -d 9 -p DSR -e 60 -c 2 -a 0 -i 13 -k RTR
h -t 15.097915177 -s 10 -d 9 -p DSR -e 60 -c 2 -a 0 -i 13 -k RTR
+ -t 15.098413234 -s 3 -d 0 -p DSR -e 60 -c 2 -a 0 -i 7 -k RTR 
- -t 15.098413234 -s 3 -d 0 -p DSR -e 60 -c 2 -a 0 -i 7 -k RTR
h -t 15.098413234 -s 3 -d 0 -p DSR -e 60 -c 2 -a 0 -i 7 -k RTR
+ -t 15.100491234 -s 0 -d 3 -p cbr -e 556 -c 2 -a 0 -i 0 -k RTR 
- -t 15.100491234 -s 0 -d 3 -p cbr -e 556 -c 2 -a 0 -i 0 -k RTR
h -t 15.100491234 -s 0 -d 3 -p cbr -e 556 -c 2 -a 0 -i 0 -k RTR
+ -t 15.108475901 -s 3 -d 4 -p cbr -e 556 -c 2 -a 0 -i 0 -k RTR 
- -t 15.108475901 -s 3 -d 4 -p cbr -e 556 -c 2 -a 0 -i 0 -k RTR
h -t 15.108475901 -s 3 -d 4 -p cbr -e 556 -c 2 -a 0 -i 0 -k RTR
+ -t 15.115934652 -s 0 -d -1 -p cbr -e 512 -c 2 -a 0 -i 14 -k AGT 
- -t 15.115934652 -s 0 -d -1 -p cbr -e 512 -c 2 -a 0 -i 14 -k AGT
h -t 15.115934652 -s 0 -d -1 -p cbr -e 512 -c 2 -a 0 -i 14 -k AGT
+ -t 15.115934652 -s 0 -d 3 -p cbr -e 556 -c 2 -a 0 -i 14 -k RTR 
- -t 15.115934652 -s 0 -d 3 -p cbr -e 556 -c 2 -a 0 -i 14 -k RTR
h -t 15.115934652 -s 0 -d 3 -p cbr -e 556 -c 2 -a 0 -i 14 -k RTR
+ -t 15.119223234 -s 4 -d 10 -p cbr -e 556 -c 2 -a 0 -i 0 -k RTR 
- -t 15.119223234 -s 4 -d 10 -p cbr -e 556 -c 2 -a 0 -i 0 -k RTR
h -t 15.119223234 -s 4 -d 10 -p cbr -e 556 -c 2 -a 0 -i 0 -k RTR
r -t 15.125229234 -s 10 -d 10 -p cbr -e 512 -c 2 -a 0 -i 0 -k AGT
+ -t 15.127571470 -s 12 -d 13 -p DSR -e 68 -c 2 -a 0 -i 10 -k RTR 
- -t 15.127571470 -s 12 -d 13 -p DSR -e 68 -c 2 -a 0 -i 10 -k RTR
h -t 15.127571470 -s 12 -d 13 -p DSR -e 68 -c 2 -a 0 -i 10 -k RTR
+ -t 15.129733470 -s 13 -d 3 -p DSR -e 68 -c 2 -a 0 -i 10 -k RTR 
- -t 15.129733470 -s 13 -d 3 -p DSR -e 68 -c 2 -a 0 -i 10 -k RTR
h -t 15.129733470 -s 13 -d 3 -p DSR -e 68 -c 2 -a 0 -i 10 -k RTR
+ -t 15.130491234 -s 0 -d 3 -p cbr -e 556 -c 2 -a 0 -i 4 -k RTR 
- -t 15.130491234 -s 0 -d 3 -p cbr -e 556 -c 2 -a 0 -i 4 -k RTR
h -t 15.130491234 -s 0 -d 3 -p cbr -e 556 -c 2 -a 0 -i 4 -k RTR
+ -t 15.131855707 -s 3 -d 0 -p DSR -e 68 -c 2 -a 0 -i 10 -k RTR 
- -t 15.131855707 -s 3 -d 0 -p DSR -e 68 -c 2 -a 0 -i 10 -k RTR
h -t 15.131855707 -s 3 -d 0 -p DSR -e 68 -c 2 -a 0 -i 10 -k RTR
+ -t 15.136361197 -s 9 -d 3 -p DSR -e 60 -c 2 -a 0 -i 13 -k RTR 
- -t 15.136361197 -s 9 -d 3 -p DSR -e 60 -c 2 -a 0 -i 13 -k RTR
h -t 15.136361197 -s 9 -d 3 -p DSR -e 60 -c 2 -a 0 -i 13 -k RTR
+ -t 15.138719197 -s 3 -d 0 -p DSR -e 60 -c 2 -a 0 -i 13 -k RTR 
- -t 15.138719197 -s 3 -d 0 -p DSR -e 60 -c 2 -a 0 -i 13 -k RTR
h -t 15.138719197 -s 3 -d 0 -p DSR -e 60 -c 2 -a 0 -i 13 -k RTR
+ -t 15.144715864 -s 3 -d 4 -p cbr -e 556 -c 2 -a 0 -i 14 -k RTR 
- -t 15.144715864 -s 3 -d 4 -p cbr -e 556 -c 2 -a 0 -i 14 -k RTR
h -t 15.144715864 -s 3 -d 4 -p cbr -e 556 -c 2 -a 0 -i 14 -k RTR
+ -t 15.152839864 -s 3 -d 4 -p cbr -e 556 -c 2 -a 0 -i 4 -k RTR 
- -t 15.152839864 -s 3 -d 4 -p cbr -e 556 -c 2 -a 0 -i 4 -k RTR
h -t 15.152839864 -s 3 -d 4 -p cbr -e 556 -c 2 -a 0 -i 4 -k RTR
+ -t 15.159125864 -s 4 -d 10 -p cbr -e 556 -c 2 -a 0 -i 14 -k RTR 
- -t 15.159125864 -s 4 -d 10 -p cbr -e 556 -c 2 -a 0 -i 14 -k RTR
h -t 15.159125864 -s 4 -d 10 -p cbr -e 556 -c 2 -a 0 -i 14 -k RTR
+ -t 15.165032531 -s 4 -d 10 -p cbr -e 556 -c 2 -a 0 -i 4 -k RTR 
- -t 15.165032531 -s 4 -d 10 -p cbr -e 556 -c 2 -a 0 -i 4 -k RTR
h -t 15.165032531 -s 4 -d 10 -p cbr -e 556 -c 2 -a 0 -i 4 -k RTR
+ -t 15.165465091 -s 0 -d -1 -p cbr -e 512 -c 2 -a 0 -i 15 -k AGT 
- -t 15.165465091 -s 0 -d -1 -p cbr -e 512 -c 2 -a 0 -i 15 -k AGT
h -t 15.165465091 -s 0 -d -1 -p cbr -e 512 -c 2 -a 0 -i 15 -k AGT
+ -t 15.165465091 -s 0 -d 3 -p cbr -e 532 -c 2 -a 0 -i 15 -k RTR 
- -t 15.165465091 -s 0 -d 3 -p cbr -e 532 -c 2 -a 0 -i 15 -k RTR
h -t 15.165465091 -s 0 -d 3 -p cbr -e 532 -c 2 -a 0 -i 15 -k RTR
r -t 15.170998531 -s 10 -d 10 -p cbr -e 512 -c 2 -a 0 -i 14 -k AGT
+ -t 15.173100531 -s 11 -d 13 -p DSR -e 68 -c 2 -a 0 -i 12 -k RTR 
- -t 15.173100531 -s 11 -d 13 -p DSR -e 68 -c 2 -a 0 -i 12 -k RTR
h -t 15.173100531 -s 11 -d 13 -p DSR -e 68 -c 2 -a 0 -i 12 -k RTR
+ -t 15.175098197 -s 13 -d 3 -p DSR -e 60 -c 2 -a 0 -i 6 -k RTR 
- -t 15.175098197 -s 13 -d 3 -p DSR -e 60 -c 2 -a 0 -i 6 -k RTR
h -t 15.175098197 -s 13 -d 3 -p DSR -e 60 -c 2 -a 0 -i 6 -k RTR
r -t 15.183133833 -s 10 -d 10 -p cbr -e 512 -c 2 -a 0 -i 4 -k AGT
+ -t 15.185132402 -s 3 -d 0 -p DSR -e 60 -c 2 -a 0 -i 6 -k RTR 
- -t 15.185132402 -s 3 -d 0 -p DSR -e 60 -c 2 -a 0 -i 6 -k RTR
h -t 15.185132402 -s 3 -d 0 -p DSR -e 60 -c 2 -a 0 -i 6 -k RTR
+ -t 15.192543462 -s 13 -d 3 -p DSR -e 68 -c 2 -a 0 -i 12 -k RTR 
- -t 15.192543462 -s 13 -d 3 -p DSR -e 68 -c 2 -a 0 -i 12 -k RTR
h -t 15.192543462 -s 13 -d 3 -p DSR -e 68 -c 2 -a 0 -i 12 -k RTR
+ -t 15.194625698 -s 3 -d 0 -p DSR -e 68 -c 2 -a 0 -i 12 -k RTR 
- -t 15.194625698 -s 3 -d 0 -p DSR -e 68 -c 2 -a 0 -i 12 -k RTR
h -t 15.194625698 -s 3 -d 0 -p DSR -e 68 -c 2 -a 0 -i 12 -k RTR
+ -t 15.203781698 -s 3 -d 4 -p cbr -e 532 -c 2 -a 0 -i 15 -k RTR 
- -t 15.203781698 -s 3 -d 4 -p cbr -e 532 -c 2 -a 0 -i 15 -k RTR
h -t 15.203781698 -s 3 -d 4 -p cbr -e 532 -c 2 -a 0 -i 15 -k RTR
+ -t 15.210055698 -s 4 -d 10 -p cbr -e 532 -c 2 -a 0 -i 15 -k RTR 
- -t 15.210055698 -s 4 -d 10 -p cbr -e 532 -c 2 -a 0 -i 15 -k RTR
h -t 15.210055698 -s 4 -d 10 -p cbr -e 532 -c 2 -a 0 -i 15 -k RTR
r -t 15.216089698 -s 10 -d 10 -p cbr -e 512 -c 2 -a 0 -i 15 -k AGT
+ -t 15.222320435 -s 0 -d -1 -p cbr -e 512 -c 2 -a 0 -i 16 -k AGT 
- -t 15.222320435 -s 0 -d -1 -p cbr -e 512 -c 2 -a 0 -i 16 -k AGT
h -t 15.222320435 -s 0 -d -1 -p cbr -e 512 -c 2 -a 0 -i 16 -k AGT
+ -t 15.222320435 -s 0 -d 3 -p cbr -e 532 -c 2 -a 0 -i 16 -k RTR 
- -t 15.222320435 -s 0 -d 3 -p cbr -e 532 -c 2 -a 0 -i 16 -k RTR
h -t 15.222320435 -s 0 -d 3 -p cbr -e 532 -c 2 -a 0 -i 16 -k RTR
+ -t 15.228230435 -s 3 -d 4 -p cbr -e 532 -c 2 -a 0 -i 16 -k RTR 
- -t 15.228230435 -s 3 -d 4 -p cbr -e 532 -c 2 -a 0 -i 16 -k RTR
h -t 15.228230435 -s 3 -d 4 -p cbr -e 532 -c 2 -a 0 -i 16 -k RTR
+ -t 15.234344435 -s 4 -d 10 -p cbr -e 532 -c 2 -a 0 -i 16 -k RTR 
- -t 15.234344435 -s 4 -d 10 -p cbr -e 532 -c 2 -a 0 -i 16 -k RTR
h -t 15.234344435 -s 4 -d 10 -p cbr -e 532 -c 2 -a 0 -i 16 -k RTR
r -t 15.240598435 -s 10 -d 10 -p cbr -e 512 -c 2 -a 0 -i 16 -k AGT
+ -t 15.258940251 -s 0 -d -1 -p cbr -e 512 -c 2 -a 0 -i 17 -k AGT 
- -t 15.258940251 -s 0 -d -1 -p cbr -e 512 -c 2 -a 0 -i 17 -k AGT
h -t 15.258940251 -s 0 -d -1 -p cbr -e 512 -c 2 -a 0 -i 17 -k AGT
+ -t 15.258940251 -s 0 -d 3 -p cbr -e 532 -c 2 -a 0 -i 17 -k RTR 
- -t 15.258940251 -s 0 -d 3 -p cbr -e 532 -c 2 -a 0 -i 17 -k RTR
h -t 15.258940251 -s 0 -d 3 -p cbr -e 532 -c 2 -a 0 -i 17 -k RTR
+ -t 15.264790251 -s 3 -d 4 -p cbr -e 532 -c 2 -a 0 -i 17 -k RTR 
- -t 15.264790251 -s 3 -d 4 -p cbr -e 532 -c 2 -a 0 -i 17 -k RTR
h -t 15.264790251 -s 3 -d 4 -p cbr -e 532 -c 2 -a 0 -i 17 -k RTR
+ -t 15.270904251 -s 4 -d 10 -p cbr -e 532 -c 2 -a 0 -i 17 -k RTR 
- -t 15.270904251 -s 4 -d 10 -p cbr -e 532 -c 2 -a 0 -i 17 -k RTR
h -t 15.270904251 -s 4 -d 10 -p cbr -e 532 -c 2 -a 0 -i 17 -k RTR
r -t 15.276718251 -s 10 -d 10 -p cbr -e 512 -c 2 -a 0 -i 17 -k AGT
+ -t 15.319679603 -s 0 -d -1 -p cbr -e 512 -c 2 -a 0 -i 18 -k AGT 
- -t 15.319679603 -s 0 -d -1 -p cbr -e 512 -c 2 -a 0 -i 18 -k AGT
h -t 15.319679603 -s 0 -d -1 -p cbr -e 512 -c 2 -a 0 -i 18 -k AGT
+ -t 15.319679603 -s 0 -d 3 -p cbr -e 532 -c 2 -a 0 -i 18 -k RTR 
- -t 15.319679603 -s 0 -d 3 -p cbr -e 532 -c 2 -a 0 -i 18 -k RTR
h -t 15.319679603 -s 0 -d 3 -p cbr -e 532 -c 2 -a 0 -i 18 -k RTR
+ -t 15.325169603 -s 3 -d 4 -p cbr -e 532 -c 2 -a 0 -i 18 -k RTR 
- -t 15.325169603 -s 3 -d 4 -p cbr -e 532 -c 2 -a 0 -i 18 -k RTR
h -t 15.325169603 -s 3 -d 4 -p cbr -e 532 -c 2 -a 0 -i 18 -k RTR
+ -t 15.331143603 -s 4 -d 10 -p cbr -e 532 -c 2 -a 0 -i 18 -k RTR 
- -t 15.331143603 -s 4 -d 10 -p cbr -e 532 -c 2 -a 0 -i 18 -k RTR
h -t 15.331143603 -s 4 -d 10 -p cbr -e 532 -c 2 -a 0 -i 18 -k RTR
r -t 15.337457603 -s 10 -d 10 -p cbr -e 512 -c 2 -a 0 -i 18 -k AGT
+ -t 15.365457320 -s 0 -d -1 -p cbr -e 512 -c 2 -a 0 -i 19 -k AGT 
- -t 15.365457320 -s 0 -d -1 -p cbr -e 512 -c 2 -a 0 -i 19 -k AGT
h -t 15.365457320 -s 0 -d -1 -p cbr -e 512 -c 2 -a 0 -i 19 -k AGT
+ -t 15.365457320 -s 0 -d 3 -p cbr -e 532 -c 2 -a 0 -i 19 -k RTR 
- -t 15.365457320 -s 0 -d 3 -p cbr -e 532 -c 2 -a 0 -i 19 -k RTR
h -t 15.365457320 -s 0 -d 3 -p cbr -e 532 -c 2 -a 0 -i 19 -k RTR
+ -t 15.371407320 -s 3 -d 4 -p cbr -e 532 -c 2 -a 0 -i 19 -k RTR 
- -t 15.371407320 -s 3 -d 4 -p cbr -e 532 -c 2 -a 0 -i 19 -k RTR
h -t 15.371407320 -s 3 -d 4 -p cbr -e 532 -c 2 -a 0 -i 19 -k RTR
+ -t 15.377481320 -s 4 -d 10 -p cbr -e 532 -c 2 -a 0 -i 19 -k RTR 
- -t 15.377481320 -s 4 -d 10 -p cbr -e 532 -c 2 -a 0 -i 19 -k RTR
h -t 15.377481320 -s 4 -d 10 -p cbr -e 532 -c 2 -a 0 -i 19 -k RTR
r -t 15.383515320 -s 10 -d 10 -p cbr -e 512 -c 2 -a 0 -i 19 -k AGT
+ -t 15.392201298 -s 0 -d -1 -p cbr -e 512 -c 2 -a 0 -i 20 -k AGT 
- -t 15.392201298 -s 0 -d -1 -p cbr -e 512 -c 2 -a 0 -i 20 -k AGT
h -t 15.392201298 -s 0 -d -1 -p cbr -e 512 -c 2 -a 0 -i 20 -k AGT
+ -t 15.392201298 -s 0 -d 3 -p cbr -e 532 -c 2 -a 0 -i 20 -k RTR 
- -t 15.392201298 -s 0 -d 3 -p cbr -e 532 -c 2 -a 0 -i 20 -k RTR
h -t 15.392201298 -s 0 -d 3 -p cbr -e 532 -c 2 -a 0 -i 20 -k RTR
+ -t 15.398051298 -s 3 -d 4 -p cbr -e 532 -c 2 -a 0 -i 20 -k RTR 
- -t 15.398051298 -s 3 -d 4 -p cbr -e 532 -c 2 -a 0 -i 20 -k RTR
h -t 15.398051298 -s 3 -d 4 -p cbr -e 532 -c 2 -a 0 -i 20 -k RTR
+ -t 15.404245298 -s 4 -d 10 -p cbr -e 532 -c 2 -a 0 -i 20 -k RTR 
- -t 15.404245298 -s 4 -d 10 -p cbr -e 532 -c 2 -a 0 -i 20 -k RTR
h -t 15.404245298 -s 4 -d 10 -p cbr -e 532 -c 2 -a 0 -i 20 -k RTR
r -t 15.410439298 -s 10 -d 10 -p cbr -e 512 -c 2 -a 0 -i 20 -k AGT
+ -t 15.430527007 -s 0 -d -1 -p cbr -e 512 -c 2 -a 0 -i 21 -k AGT 
- -t 15.430527007 -s 0 -d -1 -p cbr -e 512 -c 2 -a 0 -i 21 -k AGT
h -t 15.430527007 -s 0 -d -1 -p cbr -e 512 -c 2 -a 0 -i 21 -k AGT
+ -t 15.430527007 -s 0 -d 3 -p cbr -e 532 -c 2 -a 0 -i 21 -k RTR 
- -t 15.430527007 -s 0 -d 3 -p cbr -e 532 -c 2 -a 0 -i 21 -k RTR
h -t 15.430527007 -s 0 -d 3 -p cbr -e 532 -c 2 -a 0 -i 21 -k RTR
+ -t 15.436397007 -s 3 -d 4 -p cbr -e 532 -c 2 -a 0 -i 21 -k RTR 
- -t 15.436397007 -s 3 -d 4 -p cbr -e 532 -c 2 -a 0 -i 21 -k RTR
h -t 15.436397007 -s 3 -d 4 -p cbr -e 532 -c 2 -a 0 -i 21 -k RTR
+ -t 15.442431007 -s 4 -d 10 -p cbr -e 532 -c 2 -a 0 -i 21 -k RTR 
- -t 15.442431007 -s 4 -d 10 -p cbr -e 532 -c 2 -a 0 -i 21 -k RTR
h -t 15.442431007 -s 4 -d 10 -p cbr -e 532 -c 2 -a 0 -i 21 -k RTR
r -t 15.448605007 -s 10 -d 10 -p cbr -e 512 -c 2 -a 0 -i 21 -k AGT
+ -t 15.464619117 -s 0 -d -1 -p cbr -e 512 -c 2 -a 0 -i 22 -k AGT 
- -t 15.464619117 -s 0 -d -1 -p cbr -e 512 -c 2 -a 0 -i 22 -k AGT
h -t 15.464619117 -s 0 -d -1 -p cbr -e 512 -c 2 -a 0 -i 22 -k AGT
+ -t 15.464619117 -s 0 -d 3 -p cbr -e 532 -c 2 -a 0 -i 22 -k RTR 
- -t 15.464619117 -s 0 -d 3 -p cbr -e 532 -c 2 -a 0 -i 22 -k RTR
h -t 15.464619117 -s 0 -d 3 -p cbr -e 532 -c 2 -a 0 -i 22 -k RTR
+ -t 15.470109117 -s 3 -d 4 -p cbr -e 532 -c 2 -a 0 -i 22 -k RTR 
- -t 15.470109117 -s 3 -d 4 -p cbr -e 532 -c 2 -a 0 -i 22 -k RTR
h -t 15.470109117 -s 3 -d 4 -p cbr -e 532 -c 2 -a 0 -i 22 -k RTR
+ -t 15.476103117 -s 4 -d 10 -p cbr -e 532 -c 2 -a 0 -i 22 -k RTR 
- -t 15.476103117 -s 4 -d 10 -p cbr -e 532 -c 2 -a 0 -i 22 -k RTR
h -t 15.476103117 -s 4 -d 10 -p cbr -e 532 -c 2 -a 0 -i 22 -k RTR
r -t 15.481817117 -s 10 -d 10 -p cbr -e 512 -c 2 -a 0 -i 22 -k AGT
+ -t 15.533129712 -s 0 -d -1 -p cbr -e 512 -c 2 -a 0 -i 23 -k AGT 
- -t 15.533129712 -s 0 -d -1 -p cbr -e 512 -c 2 -a 0 -i 23 -k AGT
h -t 15.533129712 -s 0 -d -1 -p cbr -e 512 -c 2 -a 0 -i 23 -k AGT
+ -t 15.533129712 -s 0 -d 3 -p cbr -e 532 -c 2 -a 0 -i 23 -k RTR 
- -t 15.533129712 -s 0 -d 3 -p cbr -e 532 -c 2 -a 0 -i 23 -k RTR
h -t 15.533129712 -s 0 -d 3 -p cbr -e 532 -c 2 -a 0 -i 23 -k RTR
+ -t 15.539159712 -s 3 -d 4 -p cbr -e 532 -c 2 -a 0 -i 23 -k RTR 
- -t 15.539159712 -s 3 -d 4 -p cbr -e 532 -c 2 -a 0 -i 23 -k RTR
h -t 15.539159712 -s 3 -d 4 -p cbr -e 532 -c 2 -a 0 -i 23 -k RTR
+ -t 15.544973712 -s 4 -d 10 -p cbr -e 532 -c 2 -a 0 -i 23 -k RTR 
- -t 15.544973712 -s 4 -d 10 -p cbr -e 532 -c 2 -a 0 -i 23 -k RTR
h -t 15.544973712 -s 4 -d 10 -p cbr -e 532 -c 2 -a 0 -i 23 -k RTR
r -t 15.551287712 -s 10 -d 10 -p cbr -e 512 -c 2 -a 0 -i 23 -k AGT
+ -t 15.603365930 -s 0 -d -1 -p cbr -e 512 -c 2 -a 0 -i 24 -k AGT 
- -t 15.603365930 -s 0 -d -1 -p cbr -e 512 -c 2 -a 0 -i 24 -k AGT
h -t 15.603365930 -s 0 -d -1 -p cbr -e 512 -c 2 -a 0 -i 24 -k AGT
+ -t 15.603365930 -s 0 -d 3 -p cbr -e 532 -c 2 -a 0 -i 24 -k RTR 
- -t 15.603365930 -s 0 -d 3 -p cbr -e 532 -c 2 -a 0 -i 24 -k RTR
h -t 15.603365930 -s 0 -d 3 -p cbr -e 532 -c 2 -a 0 -i 24 -k RTR
+ -t 15.609335930 -s 3 -d 4 -p cbr -e 532 -c 2 -a 0 -i 24 -k RTR 
- -t 15.609335930 -s 3 -d 4 -p cbr -e 532 -c 2 -a 0 -i 24 -k RTR
h -t 15.609335930 -s 3 -d 4 -p cbr -e 532 -c 2 -a 0 -i 24 -k RTR
+ -t 15.615349930 -s 4 -d 10 -p cbr -e 532 -c 2 -a 0 -i 24 -k RTR 
- -t 15.615349930 -s 4 -d 10 -p cbr -e 532 -c 2 -a 0 -i 24 -k RTR
h -t 15.615349930 -s 4 -d 10 -p cbr -e 532 -c 2 -a 0 -i 24 -k RTR
r -t 15.621323930 -s 10 -d 10 -p cbr -e 512 -c 2 -a 0 -i 24 -k AGT
+ -t 15.632599330 -s 0 -d -1 -p cbr -e 512 -c 2 -a 0 -i 25 -k AGT 
- -t 15.632599330 -s 0 -d -1 -p cbr -e 512 -c 2 -a 0 -i 25 -k AGT
h -t 15.632599330 -s 0 -d -1 -p cbr -e 512 -c 2 -a 0 -i 25 -k AGT
+ -t 15.632599330 -s 0 -d 3 -p cbr -e 532 -c 2 -a 0 -i 25 -k RTR 
- -t 15.632599330 -s 0 -d 3 -p cbr -e 532 -c 2 -a 0 -i 25 -k RTR
h -t 15.632599330 -s 0 -d 3 -p cbr -e 532 -c 2 -a 0 -i 25 -k RTR
+ -t 15.638089330 -s 3 -d 4 -p cbr -e 532 -c 2 -a 0 -i 25 -k RTR 
- -t 15.638089330 -s 3 -d 4 -p cbr -e 532 -c 2 -a 0 -i 25 -k RTR
h -t 15.638089330 -s 3 -d 4 -p cbr -e 532 -c 2 -a 0 -i 25 -k RTR
+ -t 15.643883330 -s 4 -d 10 -p cbr -e 532 -c 2 -a 0 -i 25 -k RTR 
- -t 15.643883330 -s 4 -d 10 -p cbr -e 532 -c 2 -a 0 -i 25 -k RTR
h -t 15.643883330 -s 4 -d 10 -p cbr -e 532 -c 2 -a 0 -i 25 -k RTR
r -t 15.649677330 -s 10 -d 10 -p cbr -e 512 -c 2 -a 0 -i 25 -k AGT
+ -t 15.664280313 -s 0 -d -1 -p cbr -e 512 -c 2 -a 0 -i 26 -k AGT 
- -t 15.664280313 -s 0 -d -1 -p cbr -e 512 -c 2 -a 0 -i 26 -k AGT
h -t 15.664280313 -s 0 -d -1 -p cbr -e 512 -c 2 -a 0 -i 26 -k AGT
+ -t 15.664280313 -s 0 -d 3 -p cbr -e 532 -c 2 -a 0 -i 26 -k RTR 
- -t 15.664280313 -s 0 -d 3 -p cbr -e 532 -c 2 -a 0 -i 26 -k RTR
h -t 15.664280313 -s 0 -d 3 -p cbr -e 532 -c 2 -a 0 -i 26 -k RTR
+ -t 15.670170313 -s 3 -d 4 -p cbr -e 532 -c 2 -a 0 -i 26 -k RTR 
- -t 15.670170313 -s 3 -d 4 -p cbr -e 532 -c 2 -a 0 -i 26 -k RTR
h -t 15.670170313 -s 3 -d 4 -p cbr -e 532 -c 2 -a 0 -i 26 -k RTR
+ -t 15.675944313 -s 4 -d 10 -p cbr -e 532 -c 2 -a 0 -i 26 -k RTR 
- -t 15.675944313 -s 4 -d 10 -p cbr -e 532 -c 2 -a 0 -i 26 -k RTR
h -t 15.675944313 -s 4 -d 10 -p cbr -e 532 -c 2 -a 0 -i 26 -k RTR
r -t 15.681758313 -s 10 -d 10 -p cbr -e 512 -c 2 -a 0 -i 26 -k AGT
+ -t 15.729336918 -s 0 -d -1 -p cbr -e 512 -c 2 -a 0 -i 27 -k AGT 
- -t 15.729336918 -s 0 -d -1 -p cbr -e 512 -c 2 -a 0 -i 27 -k AGT
h -t 15.729336918 -s 0 -d -1 -p cbr -e 512 -c 2 -a 0 -i 27 -k AGT
+ -t 15.729336918 -s 0 -d 3 -p cbr -e 532 -c 2 -a 0 -i 27 -k RTR 
- -t 15.729336918 -s 0 -d 3 -p cbr -e 532 -c 2 -a 0 -i 27 -k RTR
h -t 15.729336918 -s 0 -d 3 -p cbr -e 532 -c 2 -a 0 -i 27 -k RTR
+ -t 15.735186918 -s 3 -d 4 -p cbr -e 532 -c 2 -a 0 -i 27 -k RTR 
- -t 15.735186918 -s 3 -d 4 -p cbr -e 532 -c 2 -a 0 -i 27 -k RTR
h -t 15.735186918 -s 3 -d 4 -p cbr -e 532 -c 2 -a 0 -i 27 -k RTR
+ -t 15.741300918 -s 4 -d 10 -p cbr -e 532 -c 2 -a 0 -i 27 -k RTR 
- -t 15.741300918 -s 4 -d 10 -p cbr -e 532 -c 2 -a 0 -i 27 -k RTR
h -t 15.741300918 -s 4 -d 10 -p cbr -e 532 -c 2 -a 0 -i 27 -k RTR
r -t 15.747574918 -s 10 -d 10 -p cbr -e 512 -c 2 -a 0 -i 27 -k AGT
+ -t 15.773096058 -s 0 -d -1 -p cbr -e 512 -c 2 -a 0 -i 28 -k AGT 
- -t 15.773096058 -s 0 -d -1 -p cbr -e 512 -c 2 -a 0 -i 28 -k AGT
h -t 15.773096058 -s 0 -d -1 -p cbr -e 512 -c 2 -a 0 -i 28 -k AGT
+ -t 15.773096058 -s 0 -d 3 -p cbr -e 532 -c 2 -a 0 -i 28 -k RTR 
- -t 15.773096058 -s 0 -d 3 -p cbr -e 532 -c 2 -a 0 -i 28 -k RTR
h -t 15.773096058 -s 0 -d 3 -p cbr -e 532 -c 2 -a 0 -i 28 -k RTR
+ -t 15.778706058 -s 3 -d 4 -p cbr -e 532 -c 2 -a 0 -i 28 -k RTR 
- -t 15.778706058 -s 3 -d 4 -p cbr -e 532 -c 2 -a 0 -i 28 -k RTR
h -t 15.778706058 -s 3 -d 4 -p cbr -e 532 -c 2 -a 0 -i 28 -k RTR
+ -t 15.784860058 -s 4 -d 10 -p cbr -e 532 -c 2 -a 0 -i 28 -k RTR 
- -t 15.784860058 -s 4 -d 10 -p cbr -e 532 -c 2 -a 0 -i 28 -k RTR
h -t 15.784860058 -s 4 -d 10 -p cbr -e 532 -c 2 -a 0 -i 28 -k RTR
r -t 15.790674058 -s 10 -d 10 -p cbr -e 512 -c 2 -a 0 -i 28 -k AGT
+ -t 15.817590621 -s 0 -d -1 -p cbr -e 512 -c 2 -a 0 -i 29 -k AGT 
- -t 15.817590621 -s 0 -d -1 -p cbr -e 512 -c 2 -a 0 -i 29 -k AGT
h -t 15.817590621 -s 0 -d -1 -p cbr -e 512 -c 2 -a 0 -i 29 -k AGT
+ -t 15.817590621 -s 0 -d 3 -p cbr -e 532 -c 2 -a 0 -i 29 -k RTR 
- -t 15.817590621 -s 0 -d 3 -p cbr -e 532 -c 2 -a 0 -i 29 -k RTR
h -t 15.817590621 -s 0 -d 3 -p cbr -e 532 -c 2 -a 0 -i 29 -k RTR
+ -t 15.823440621 -s 3 -d 4 -p cbr -e 532 -c 2 -a 0 -i 29 -k RTR 
- -t 15.823440621 -s 3 -d 4 -p cbr -e 532 -c 2 -a 0 -i 29 -k RTR
h -t 15.823440621 -s 3 -d 4 -p cbr -e 532 -c 2 -a 0 -i 29 -k RTR
+ -t 15.829754621 -s 4 -d 10 -p cbr -e 532 -c 2 -a 0 -i 29 -k RTR 
- -t 15.829754621 -s 4 -d 10 -p cbr -e 532 -c 2 -a 0 -i 29 -k RTR
h -t 15.829754621 -s 4 -d 10 -p cbr -e 532 -c 2 -a 0 -i 29 -k RTR
r -t 15.835828621 -s 10 -d 10 -p cbr -e 512 -c 2 -a 0 -i 29 -k AGT
+ -t 15.870287118 -s 0 -d -1 -p cbr -e 512 -c 2 -a 0 -i 30 -k AGT 
- -t 15.870287118 -s 0 -d -1 -p cbr -e 512 -c 2 -a 0 -i 30 -k AGT
h -t 15.870287118 -s 0 -d -1 -p cbr -e 512 -c 2 -a 0 -i 30 -k AGT
+ -t 15.870287118 -s 0 -d 3 -p cbr -e 532 -c 2 -a 0 -i 30 -k RTR 
- -t 15.870287118 -s 0 -d 3 -p cbr -e 532 -c 2 -a 0 -i 30 -k RTR
h -t 15.870287118 -s 0 -d 3 -p cbr -e 532 -c 2 -a 0 -i 30 -k RTR
+ -t 15.875957118 -s 3 -d 4 -p cbr -e 532 -c 2 -a 0 -i 30 -k RTR 
- -t 15.875957118 -s 3 -d 4 -p cbr -e 532 -c 2 -a 0 -i 30 -k RTR
h -t 15.875957118 -s 3 -d 4 -p cbr -e 532 -c 2 -a 0 -i 30 -k RTR
+ -t 15.881971118 -s 4 -d 10 -p cbr -e 532 -c 2 -a 0 -i 30 -k RTR 
- -t 15.881971118 -s 4 -d 10 -p cbr -e 532 -c 2 -a 0 -i 30 -k RTR
h -t 15.881971118 -s 4 -d 10 -p cbr -e 532 -c 2 -a 0 -i 30 -k RTR
r -t 15.887685118 -s 10 -d 10 -p cbr -e 512 -c 2 -a 0 -i 30 -k AGT
+ -t 15.911671781 -s 0 -d -1 -p cbr -e 512 -c 2 -a 0 -i 31 -k AGT 
- -t 15.911671781 -s 0 -d -1 -p cbr -e 512 -c 2 -a 0 -i 31 -k AGT
h -t 15.911671781 -s 0 -d -1 -p cbr -e 512 -c 2 -a 0 -i 31 -k AGT
+ -t 15.911671781 -s 0 -d 3 -p cbr -e 532 -c 2 -a 0 -i 31 -k RTR 
- -t 15.911671781 -s 0 -d 3 -p cbr -e 532 -c 2 -a 0 -i 31 -k RTR
h -t 15.911671781 -s 0 -d 3 -p cbr -e 532 -c 2 -a 0 -i 31 -k RTR
+ -t 15.917601781 -s 3 -d 4 -p cbr -e 532 -c 2 -a 0 -i 31 -k RTR 
- -t 15.917601781 -s 3 -d 4 -p cbr -e 532 -c 2 -a 0 -i 31 -k RTR
h -t 15.917601781 -s 3 -d 4 -p cbr -e 532 -c 2 -a 0 -i 31 -k RTR
+ -t 15.923735781 -s 4 -d 10 -p cbr -e 532 -c 2 -a 0 -i 31 -k RTR 
- -t 15.923735781 -s 4 -d 10 -p cbr -e 532 -c 2 -a 0 -i 31 -k RTR
h -t 15.923735781 -s 4 -d 10 -p cbr -e 532 -c 2 -a 0 -i 31 -k RTR
r -t 15.929709781 -s 10 -d 10 -p cbr -e 512 -c 2 -a 0 -i 31 -k AGT
+ -t 15.955566163 -s 0 -d -1 -p cbr -e 512 -c 2 -a 0 -i 32 -k AGT 
- -t 15.955566163 -s 0 -d -1 -p cbr -e 512 -c 2 -a 0 -i 32 -k AGT
h -t 15.955566163 -s 0 -d -1 -p cbr -e 512 -c 2 -a 0 -i 32 -k AGT
+ -t 15.955566163 -s 0 -d 3 -p cbr -e 532 -c 2 -a 0 -i 32 -k RTR 
- -t 15.955566163 -s 0 -d 3 -p cbr -e 532 -c 2 -a 0 -i 32 -k RTR
h -t 15.955566163 -s 0 -d 3 -p cbr -e 532 -c 2 -a 0 -i 32 -k RTR
+ -t 15.961436163 -s 3 -d 4 -p cbr -e 532 -c 2 -a 0 -i 32 -k RTR 
- -t 15.961436163 -s 3 -d 4 -p cbr -e 532 -c 2 -a 0 -i 32 -k RTR
h -t 15.961436163 -s 3 -d 4 -p cbr -e 532 -c 2 -a 0 -i 32 -k RTR
+ -t 15.967270163 -s 4 -d 10 -p cbr -e 532 -c 2 -a 0 -i 32 -k RTR 
- -t 15.967270163 -s 4 -d 10 -p cbr -e 532 -c 2 -a 0 -i 32 -k RTR
h -t 15.967270163 -s 4 -d 10 -p cbr -e 532 -c 2 -a 0 -i 32 -k RTR
r -t 15.973024163 -s 10 -d 10 -p cbr -e 512 -c 2 -a 0 -i 32 -k AGT
+ -t 16.010403690 -s 0 -d -1 -p cbr -e 512 -c 2 -a 0 -i 33 -k AGT 
- -t 16.010403690 -s 0 -d -1 -p cbr -e 512 -c 2 -a 0 -i 33 -k AGT
h -t 16.010403690 -s 0 -d -1 -p cbr -e 512 -c 2 -a 0 -i 33 -k AGT
+ -t 16.010403690 -s 0 -d 3 -p cbr -e 532 -c 2 -a 0 -i 33 -k RTR 
- -t 16.010403690 -s 0 -d 3 -p cbr -e 532 -c 2 -a 0 -i 33 -k RTR
h -t 16.010403690 -s 0 -d 3 -p cbr -e 532 -c 2 -a 0 -i 33 -k RTR
+ -t 16.016173690 -s 3 -d 4 -p cbr -e 532 -c 2 -a 0 -i 33 -k RTR 
- -t 16.016173690 -s 3 -d 4 -p cbr -e 532 -c 2 -a 0 -i 33 -k RTR
h -t 16.016173690 -s 3 -d 4 -p cbr -e 532 -c 2 -a 0 -i 33 -k RTR
+ -t 16.021947690 -s 4 -d 10 -p cbr -e 532 -c 2 -a 0 -i 33 -k RTR 
- -t 16.021947690 -s 4 -d 10 -p cbr -e 532 -c 2 -a 0 -i 33 -k RTR
h -t 16.021947690 -s 4 -d 10 -p cbr -e 532 -c 2 -a 0 -i 33 -k RTR
r -t 16.027821690 -s 10 -d 10 -p cbr -e 512 -c 2 -a 0 -i 33 -k AGT
+ -t 16.046189583 -s 0 -d -1 -p cbr -e 512 -c 2 -a 0 -i 34 -k AGT 
- -t 16.046189583 -s 0 -d -1 -p cbr -e 512 -c 2 -a 0 -i 34 -k AGT
h -t 16.046189583 -s 0 -d -1 -p cbr -e 512 -c 2 -a 0 -i 34 -k AGT
+ -t 16.046189583 -s 0 -d 3 -p cbr -e 532 -c 2 -a 0 -i 34 -k RTR 
- -t 16.046189583 -s 0 -d 3 -p cbr -e 532 -c 2 -a 0 -i 34 -k RTR
h -t 16.046189583 -s 0 -d 3 -p cbr -e 532 -c 2 -a 0 -i 34 -k RTR
+ -t 16.052179583 -s 3 -d 4 -p cbr -e 532 -c 2 -a 0 -i 34 -k RTR 
- -t 16.052179583 -s 3 -d 4 -p cbr -e 532 -c 2 -a 0 -i 34 -k RTR
h -t 16.052179583 -s 3 -d 4 -p cbr -e 532 -c 2 -a 0 -i 34 -k RTR
+ -t 16.058213583 -s 4 -d 10 -p cbr -e 532 -c 2 -a 0 -i 34 -k RTR 
- -t 16.058213583 -s 4 -d 10 -p cbr -e 532 -c 2 -a 0 -i 34 -k RTR
h -t 16.058213583 -s 4 -d 10 -p cbr -e 532 -c 2 -a 0 -i 34 -k RTR
r -t 16.064387583 -s 10 -d 10 -p cbr -e 512 -c 2 -a 0 -i 34 -k AGT
+ -t 16.107713014 -s 0 -d -1 -p cbr -e 512 -c 2 -a 0 -i 35 -k AGT 
- -t 16.107713014 -s 0 -d -1 -p cbr -e 512 -c 2 -a 0 -i 35 -k AGT
h -t 16.107713014 -s 0 -d -1 -p cbr -e 512 -c 2 -a 0 -i 35 -k AGT
+ -t 16.107713014 -s 0 -d 3 -p cbr -e 532 -c 2 -a 0 -i 35 -k RTR 
- -t 16.107713014 -s 0 -d 3 -p cbr -e 532 -c 2 -a 0 -i 35 -k RTR
h -t 16.107713014 -s 0 -d 3 -p cbr -e 532 -c 2 -a 0 -i 35 -k RTR
+ -t 16.113563014 -s 3 -d 4 -p cbr -e 532 -c 2 -a 0 -i 35 -k RTR 
- -t 16.113563014 -s 3 -d 4 -p cbr -e 532 -c 2 -a 0 -i 35 -k RTR
h -t 16.113563014 -s 3 -d 4 -p cbr -e 532 -c 2 -a 0 -i 35 -k RTR
+ -t 16.119297014 -s 4 -d 10 -p cbr -e 532 -c 2 -a 0 -i 35 -k RTR 
- -t 16.119297014 -s 4 -d 10 -p cbr -e 532 -c 2 -a 0 -i 35 -k RTR
h -t 16.119297014 -s 4 -d 10 -p cbr -e 532 -c 2 -a 0 -i 35 -k RTR
r -t 16.125271014 -s 10 -d 10 -p cbr -e 512 -c 2 -a 0 -i 35 -k AGT
+ -t 16.152269065 -s 0 -d -1 -p cbr -e 512 -c 2 -a 0 -i 36 -k AGT 
- -t 16.152269065 -s 0 -d -1 -p cbr -e 512 -c 2 -a 0 -i 36 -k AGT
h -t 16.152269065 -s 0 -d -1 -p cbr -e 512 -c 2 -a 0 -i 36 -k AGT
+ -t 16.152269065 -s 0 -d 3 -p cbr -e 532 -c 2 -a 0 -i 36 -k RTR 
- -t 16.152269065 -s 0 -d 3 -p cbr -e 532 -c 2 -a 0 -i 36 -k RTR
h -t 16.152269065 -s 0 -d 3 -p cbr -e 532 -c 2 -a 0 -i 36 -k RTR
+ -t 16.157959065 -s 3 -d 4 -p cbr -e 532 -c 2 -a 0 -i 36 -k RTR 
- -t 16.157959065 -s 3 -d 4 -p cbr -e 532 -c 2 -a 0 -i 36 -k RTR